# Time	LEU-41	ALA-42	ILE-43	VAL-44	PHE-45	GLY-46	ASN-47	GLY-48	LEU-49	VAL-50	CYS-51	MET-52	ALA-53	VAL-54	LEU-55	LYS-56	GLU-57	ARG-58	ALA-59	LEU-60	GLN-61	THR-62	THR-63	THR-64	ASN-65	TYR-66	LEU-67	VAL-68	VAL-69	SER-70	LEU-71	ALA-72	VAL-73	ALA-74	ASH-75	LEU-76	LEU-77	VAL-78	ALA-79	THR-80	LEU-81	VAL-82	MET-83	PRO-84	TRP-85	VAL-86	VAL-87	TYR-88	LEU-89	GLU-90	VAL-91	THR-92	GLY-93	GLY-94	VAL-95	TRP-96	ASN-97	PHE-98	SER-99	ARG-100	ILE-101	CYS-102	CYX-103	ASP-104	VAL-105	PHE-106	VAL-107	THR-108	LEU-109	ASP-110	VAL-111	MET-112	MET-113	CYS-114	THR-115	ALA-116	SER-117	ILE-118	TRP-119	ASN-120	LEU-121	CYS-122	ALA-123	ILE-124	SER-125	ILE-126	ASP-127	ARG-128	TYR-129	THR-130	ALA-131	VAL-132	VAL-133	MET-134	PRO-135	VAL-136	HID-137	TYR-138	GLN-139	HID-140	GLY-141	THR-142	GLY-143	GLN-144	SER-145	SER-146	CYS-147	ARG-148	ARG-149	VAL-150	ALA-151	LEU-152	MET-153	ILE-154	THR-155	ALA-156	VAL-157	TRP-158	VAL-159	LEU-160	ALA-161	PHE-162	ALA-163	VAL-164	SER-165	CYS-166	PRO-167	LEU-168	LEU-169	PHE-170	GLY-171	PHE-172	ASN-173	THR-174	THR-175	GLY-176	ASP-177	PRO-178	THR-179	VAL-180	CYX-181	SER-182	ILE-183	SER-184	ASN-185	PRO-186	ASP-187	PHE-188	VAL-189	ILE-190	TYR-191	SER-192	SER-193	VAL-194	VAL-195	SER-196	PHE-197	TYR-198	LEU-199	PRO-200	PHE-201	GLY-202	VAL-203	THR-204	VAL-205	LEU-206	VAL-207	TYR-208	ALA-209	ARG-210	ILE-211	TYR-212	VAL-213	VAL-214	LEU-215	LYS-216	GLN-217	ARG-218	ARG-219	ARG-220	LYS-221	GLY-319	VAL-320	PRO-321	LEU-322	ARG-323	GLU-324	LYS-325	LYS-326	ALA-327	THR-328	GLN-329	MET-330	VAL-331	ALA-332	ILE-333	VAL-334	LEU-335	GLY-336	ALA-337	PHE-338	ILE-339	VAL-340	CYS-341	TRP-342	LEU-343	PRO-344	PHE-345	PHE-346	LEU-347	THR-348	HIE-349	VAL-350	LEU-351	ASN-352	THR-353	HID-354	CYX-355	GLN-356	THR-357	CYX-358	HID-359	VAL-360	SER-361	PRO-362	GLU-363	LEU-364	TYR-365	SER-366	ALA-367	THR-368	THR-369	TRP-370	LEU-371	GLY-372	TYR-373	VAL-374	ASN-375	SER-376	ALA-377	LEU-378	ASN-379	PRO-380	VAL-381	ILE-382	TYR-383	THR-384	THR-385	PHE-386	ASN-387	ILE-388	GLU-389	PHE-390	ARG-391	LYS-392	ALA-393	PHE-394	LEU-395	LYS-396	ILE-397	DPN-14602	
          0.000         -1.089          0.037          0.060          0.077          0.011         -0.101         -0.116         -0.040         -0.054         -0.091         -0.025         -0.060         -0.056         -0.057         -0.020         -0.310          0.453         -0.105          0.004          0.030         -0.012          0.040          0.041          0.066          0.131          0.089          0.105          0.127          0.116          0.224          0.117          0.148          0.136          0.252          0.224          0.149          0.219          0.158          0.167          0.202          0.026         -0.315          0.042         -0.047         -0.448         -0.574         -0.205         -0.248         -0.246          3.360         -0.123          0.013         -0.063          0.025          0.032         -0.064         -0.011         -0.109          0.190         -1.802          0.215          0.263          0.433          3.439          0.386          0.891          0.587          0.071         -0.125         43.298          0.213         -0.128         -0.726          0.168          0.148         -0.223         -0.240         -0.266         -0.237         -0.129         -0.169         -0.162         -0.113         -0.102         -0.091         -0.094          0.899         -0.896         -0.051         -0.065         -0.041         -0.025         -0.023          0.000          0.008          0.009          0.015         -0.017         -0.029          0.000         -0.013         -0.008          0.012          0.012          0.017          0.038          0.066         -0.266         -0.493          0.082          0.090          0.122          0.123          0.154          0.145          0.196          0.149          0.319          0.160          0.115          0.125          0.159          0.064         -0.008         -0.130         -0.107         -0.161         -0.207         -0.085         -0.145         -0.157         -0.108         -0.133         -0.022         -0.133         -0.079          2.234          0.029          0.056         -0.112          0.009         -0.254         -0.063         -0.056          0.367          0.190          2.143          0.434          0.079          0.100         -0.189          2.380          0.351         -0.069         -0.102          1.156         -0.070         -0.073         -0.113         -0.189         -0.137         -0.109         -0.133         -0.126         -0.075         -0.056         -0.081         -0.059         -0.053         -0.346         -0.052         -0.015         -0.021         -0.028         -0.029         -0.126          0.013         -0.039         -0.050         -0.217         -0.045         -0.010         -0.015          0.023          0.029         -0.358          0.571         -0.201         -0.202          0.054          0.070          0.079          0.082          0.085          0.095          0.106          0.088          0.145          0.112          0.142          0.133          0.142          0.138          0.145          0.403          0.037         -0.052          0.635          0.228         -0.089         -0.210          2.287         -0.072         -0.077         -0.249         -0.066         -0.073          0.036         -0.009         -0.102          0.016          0.001         -0.083          0.243          0.228          1.923          0.203          0.776          0.438          0.239          0.101          0.708          0.443         -0.019         -0.253         -0.079         -0.115         -0.429         -0.269         -0.147         -0.189         -0.189         -0.117         -0.116         -0.110         -0.059         -0.100         -0.076         -0.053         -0.033          0.000          0.515         -0.035         -0.269         -0.132         -0.009         -0.033          0.017         -0.115          0.298        129.980
       4000.000         -1.117          0.054          0.092          0.093          0.019         -0.096         -0.133         -0.069         -0.062         -0.093         -0.003         -0.040         -0.056         -0.070         -0.042         -0.456          0.550         -0.167          0.010          0.038         -0.060          0.047          0.034          0.091          0.155          0.095          0.123          0.095          0.153          0.193          0.120          0.124          0.143          0.250          0.210          0.136          0.174          0.161          0.126          0.071          0.031         -0.247          0.263         -0.051         -0.529         -0.663         -0.190         -0.224         -0.267          3.385         -0.140         -0.130         -0.112          0.026          0.060         -0.102         -0.105         -0.126          0.196         -2.052          0.236          0.241          0.384          3.631          0.302          0.777          0.883          0.283         -0.018         40.298          0.459         -0.155         -0.690         -0.565          0.170         -0.248         -0.267         -0.335         -0.286         -0.212         -0.202         -0.284         -0.129         -0.131         -0.129         -0.097          1.046         -1.065         -0.060         -0.064         -0.047         -0.031         -0.028          0.001          0.005          0.004          0.007         -0.026         -0.013         -0.007         -0.020         -0.002         -0.013          0.008          0.033          0.065          0.050         -0.279         -0.747          0.088          0.126          0.146          0.147          0.184          0.133          0.194          0.164          0.315          0.199          0.089          0.110          0.124          0.062         -0.118         -0.123         -0.070         -0.110         -0.168         -0.083         -0.020         -0.090         -0.117         -0.220         -0.040         -0.066         -0.080          2.796          0.073          0.139         -0.165          0.067         -0.097         -0.066         -0.115          0.296          0.179          2.049          0.621          0.578          0.154         -0.087          2.911          0.235         -0.006         -0.114          1.420         -0.003         -0.059         -0.138         -0.232         -0.204         -0.171         -0.158         -0.170         -0.086         -0.087         -0.119         -0.070         -0.063         -0.436         -0.062         -0.019         -0.022         -0.042         -0.027         -0.126          0.005         -0.045         -0.061         -0.255         -0.061          0.011         -0.016          0.035          0.039         -0.426          0.698         -0.258         -0.436          0.079          0.106          0.070          0.125          0.135          0.137          0.171          0.157          0.229          0.236          0.253          0.253          0.240          0.232          0.225          0.516          0.062         -0.110          0.383          0.497         -0.145         -0.305          2.790         -0.113         -0.138         -0.291         -0.121         -0.102          0.023          0.002         -0.116         -0.043         -0.033         -0.110          0.295          0.289          2.307          0.321          0.590          0.537          0.438          0.391          1.289          0.850         -0.066         -0.755         -2.019         -0.221         -0.927         -0.483         -0.206         -0.260         -0.244         -0.142         -0.142         -0.152         -0.107         -0.112         -0.111         -0.062         -0.056         -0.004          0.633         -0.041         -0.323         -0.187         -0.018         -0.029          0.018         -0.206          0.329        139.622
       8000.000         -1.201          0.046          0.081          0.101          0.038         -0.112         -0.195         -0.060         -0.049         -0.096         -0.010         -0.017         -0.053         -0.064         -0.038         -0.357          0.484         -0.128          0.000          0.032         -0.076          0.040          0.036          0.067          0.136          0.089          0.120          0.137          0.142          0.161          0.108          0.137          0.182          0.307          0.269          0.210          0.180          0.146          0.161         -0.015          0.041         -0.168          0.192         -0.029         -0.497         -0.542         -0.179         -0.213         -0.284          3.810         -0.098         -0.133         -0.119          0.023          0.073         -0.085         -0.005         -0.096          0.190         -1.851          0.205          0.209          0.337          3.153          0.317          0.743          0.587         -0.008         -0.076         39.917          0.492         -0.163         -0.616         -0.219         -0.270         -0.201         -0.162         -0.213         -0.196         -0.091         -0.182         -0.168         -0.121         -0.116         -0.094         -0.084          0.940         -0.960         -0.055         -0.073         -0.047         -0.032         -0.026          0.005          0.012          0.008          0.011         -0.025          0.009          0.002         -0.019         -0.007         -0.015          0.004          0.032          0.045          0.067         -0.274         -0.443          0.074          0.091          0.130          0.164          0.161          0.158          0.161          0.095          0.292          0.191          0.052          0.119          0.101          0.028         -0.007         -0.105         -0.114         -0.130         -0.160         -0.078         -0.011         -0.094         -0.079         -0.186         -0.058         -0.047         -0.092          2.106          0.078          0.002         -0.081          0.032         -0.059         -0.015         -0.068          0.257          0.148          2.066          0.636          0.255          0.066         -0.134          2.308          0.402         -0.019         -0.048          0.974         -0.031         -0.070         -0.090         -0.195         -0.183         -0.130         -0.126         -0.125         -0.095         -0.063         -0.096         -0.068         -0.059         -0.368         -0.054         -0.020         -0.024         -0.035         -0.031         -0.139          0.005         -0.082         -0.037         -0.231         -0.119          0.009         -0.015          0.027          0.034         -0.134          0.617         -0.223         -0.307          0.070          0.084          0.074          0.096          0.121          0.126          0.146          0.133          0.207          0.223          0.220          0.251          0.190          0.173          0.202          0.702          0.069         -0.043          1.129          0.486         -0.162         -0.323          2.248         -0.090         -0.165         -0.236         -0.159         -0.125         -0.005          0.051         -0.155          0.016         -0.090         -0.115          0.336          0.353          2.640          0.348          1.404          0.729          0.373          0.191          1.768          0.442         -0.072         -0.433         -1.439         -0.177         -0.655         -0.210         -0.171         -0.193         -0.221         -0.125         -0.122         -0.122         -0.087         -0.091         -0.093         -0.050         -0.045          0.005          0.551         -0.036         -0.425         -0.201         -0.021         -0.028          0.016         -0.141          0.351        141.020
      12000.000         -1.067          0.042          0.078          0.101          0.044         -0.105         -0.132         -0.069         -0.053         -0.099         -0.018         -0.031         -0.049         -0.055         -0.019         -0.355          0.490         -0.124          0.015          0.034         -0.039          0.042          0.024          0.065          0.136          0.082          0.106          0.127          0.127          0.179          0.101          0.122          0.148          0.234          0.252          0.177          0.088          0.229          0.253         -0.063          0.063         -0.024         -0.017         -0.047         -0.556         -0.591         -0.205         -0.254         -0.246          3.373         -0.106         -0.070         -0.105         -0.010          0.055         -0.053         -0.039         -0.135          0.170         -1.784          0.188          0.186          0.321          3.152          0.301          0.678          0.868          0.136         -0.057         35.799          0.633         -0.135         -0.544         -0.344          0.470         -0.179         -0.180         -0.279         -0.266         -0.163         -0.212         -0.191         -0.125         -0.125         -0.111         -0.087          0.963         -0.997         -0.057         -0.054         -0.045         -0.029         -0.027          0.006          0.006          0.009          0.022         -0.019         -0.039         -0.018         -0.019         -0.002         -0.015          0.006          0.033          0.056          0.049         -0.262         -0.480          0.089          0.119          0.116          0.108          0.157          0.142          0.193          0.180          0.289          0.167          0.085          0.144          0.186          0.067         -0.005         -0.080         -0.112         -0.121         -0.138         -0.113         -0.143         -0.135         -0.118         -0.086          0.017         -0.043         -0.114          1.938          0.022         -0.034         -0.043          0.097         -0.063         -0.085          0.006          0.306          0.163          2.137          0.404          0.058          0.095         -0.104          2.920          0.298          0.036         -0.073          1.448         -0.099         -0.103         -0.129         -0.235         -0.187         -0.162         -0.150         -0.165         -0.110         -0.077         -0.100         -0.061         -0.058         -0.405         -0.056         -0.020         -0.020         -0.024         -0.026         -0.136          0.019         -0.082         -0.037         -0.260         -0.080          0.012         -0.014          0.031          0.040         -0.520          0.635         -0.205         -0.260          0.066          0.101          0.106          0.123          0.124          0.114          0.139          0.157          0.259          0.220          0.251          0.211          0.232          0.238          0.255          0.543         -0.002         -0.143          0.546          0.542         -0.102         -0.364          1.193         -0.138         -0.126         -0.430         -0.172         -0.160         -0.025         -0.006         -0.103          0.048         -0.053         -0.156          0.320          0.321          2.356          0.378          0.722          0.817          0.425          0.352          0.892          0.742         -0.064         -0.671         -0.749         -0.208         -0.852         -0.416         -0.225         -0.269         -0.214         -0.132         -0.141         -0.145         -0.084         -0.101         -0.116         -0.059         -0.024          0.000          0.647         -0.041         -0.367         -0.136         -0.022         -0.027          0.012         -0.118          0.334        142.789
      16000.000         -1.171          0.060          0.054          0.055          0.029         -0.117         -0.163         -0.055         -0.043         -0.097         -0.018         -0.040         -0.056         -0.067         -0.035         -0.365          0.543         -0.141          0.002          0.032         -0.027          0.039          0.038          0.078          0.147          0.096          0.134          0.144          0.137          0.164          0.110          0.152          0.141          0.287          0.259          0.157          0.126          0.169          0.182         -0.079          0.038         -0.254          0.051         -0.076         -0.525         -0.617         -0.164         -0.207         -0.280          3.331         -0.116         -0.150         -0.098          0.017          0.079         -0.091         -0.067         -0.115          0.182         -1.855          0.219          0.212          0.289          3.331          0.350          0.788          0.774          0.187         -0.031         41.298          0.836         -0.231         -0.839         -0.621          0.197         -0.162         -0.191         -0.343         -0.319         -0.061         -0.194         -0.195         -0.141         -0.134         -0.134         -0.113          1.055         -1.095         -0.066         -0.075         -0.052         -0.039         -0.027         -0.005          0.004          0.012          0.016         -0.015         -0.048          0.001         -0.016         -0.004          0.024          0.040          0.055          0.075          0.046         -0.262         -0.542          0.093          0.144          0.145          0.184          0.194          0.163          0.199          0.191          0.305          0.208          0.126          0.205          0.216          0.080         -0.046         -0.188         -0.159         -0.173         -0.182         -0.150         -0.156         -0.097         -0.115         -0.182         -0.006         -0.042         -0.060          2.642          0.081          0.017         -0.253          0.098         -0.156         -0.076          0.311          0.310          0.156          2.540          0.857          0.233          0.134         -0.114          2.977          0.306         -0.062         -0.184          1.210         -0.112         -0.083         -0.153         -0.245         -0.177         -0.125         -0.143         -0.169         -0.079         -0.082         -0.130         -0.067         -0.068         -0.441         -0.066         -0.022         -0.026         -0.038         -0.031         -0.176          0.027         -0.037         -0.039         -0.265         -0.128          0.014         -0.022          0.029          0.038         -0.526          0.709         -0.220         -0.295          0.073          0.090          0.091          0.130          0.122          0.150          0.164          0.153          0.194          0.181          0.239          0.177          0.230          0.194          0.166          0.556          0.032         -0.111          0.791          0.410         -0.131         -0.287          1.625         -0.117         -0.157         -0.291         -0.126         -0.160         -0.068         -0.029         -0.107          0.002         -0.009         -0.107          0.276          0.320          2.162          0.298          0.411          0.749          0.400          0.446          1.567          0.819         -0.052         -0.355         -1.836         -0.248         -0.746         -0.465         -0.200         -0.256         -0.218         -0.133         -0.133         -0.150         -0.089         -0.085         -0.105         -0.064         -0.035          0.005          0.470         -0.028         -0.403         -0.159         -0.023         -0.035          0.027         -0.161          0.374        144.084
      20000.000         -1.082          0.025          0.059          0.071          0.055         -0.121         -0.167         -0.057         -0.067         -0.100         -0.019         -0.040         -0.055         -0.060         -0.030         -0.322          0.473         -0.152          0.010          0.031         -0.057          0.048          0.037          0.070          0.142          0.100          0.115          0.136          0.132          0.178          0.130          0.170          0.172          0.279          0.220          0.209          0.175          0.159          0.204         -0.121          0.020         -0.207          0.116         -0.007         -0.503         -0.558         -0.172         -0.215         -0.322          3.569         -0.158         -0.176         -0.115          0.021          0.103         -0.078         -0.045         -0.154          0.171         -2.087          0.245          0.326          0.311          3.352          0.327          0.986          0.783          0.025         -0.166         39.392          0.821         -0.265         -0.675         -0.246          0.061         -0.147         -0.172         -0.273         -0.228         -0.070         -0.169         -0.155         -0.118         -0.119         -0.111         -0.092          0.948         -0.983         -0.052         -0.071         -0.045         -0.027         -0.027         -0.009          0.002          0.007          0.006         -0.032         -0.044          0.001         -0.007         -0.010          0.021          0.039          0.050          0.066          0.069         -0.191         -0.471          0.091          0.124          0.142          0.158          0.162          0.135          0.147          0.137          0.260          0.160          0.090          0.093          0.063          0.062         -0.034         -0.070         -0.077         -0.081         -0.131         -0.112         -0.134         -0.086         -0.132         -0.090         -0.080         -0.064         -0.082          3.024          0.068         -0.037         -0.234          0.048         -0.104         -0.123          0.369          0.221          0.116          2.112          0.450          0.117          0.078         -0.073          2.780          0.195         -0.012         -0.070          1.286         -0.045         -0.097         -0.121         -0.227         -0.199         -0.137         -0.122         -0.144         -0.086         -0.075         -0.101         -0.046         -0.054         -0.420         -0.058         -0.017         -0.028         -0.030         -0.026         -0.138          0.013         -0.025         -0.038         -0.255         -0.021         -0.005         -0.019          0.025          0.036         -0.454          0.608         -0.216         -0.246          0.058          0.085          0.078          0.083          0.109          0.130          0.153          0.147          0.212          0.190          0.238          0.198          0.213          0.212          0.046          0.539          0.036         -0.100          0.735          0.287         -0.157         -0.252          2.207         -0.073         -0.124         -0.301         -0.108         -0.118          0.001         -0.012         -0.109          0.034         -0.035         -0.117          0.284          0.319          2.244          0.310          0.475          0.597          0.467          0.352          1.952          0.919         -0.061         -0.294         -1.969         -0.201         -0.693         -0.387         -0.210         -0.231         -0.234         -0.131         -0.142         -0.145         -0.084         -0.098         -0.105         -0.061         -0.083         -0.001          0.441         -0.032         -0.362         -0.155         -0.017         -0.027          0.025         -0.123          0.353        139.024
      24000.000         -1.013          0.009          0.126          0.086          0.027         -0.109         -0.147         -0.055         -0.047         -0.097         -0.039         -0.061         -0.053         -0.059         -0.013         -0.385          0.471         -0.140          0.016          0.028         -0.043          0.036          0.036          0.054          0.158          0.097          0.129          0.137          0.145          0.206          0.121          0.115          0.176          0.322          0.261          0.173          0.140          0.181          0.259         -0.196         -0.050         -0.223          0.319         -0.060         -0.454         -0.538         -0.180         -0.169         -0.307          3.653         -0.157         -0.095         -0.122          0.019          0.098         -0.122         -0.031         -0.150          0.177         -2.065          0.257          0.326          0.338          3.574          0.413          0.813          1.037          0.087         -0.187         40.436          0.626         -0.192         -0.797         -0.605          0.121         -0.226         -0.229         -0.269         -0.235         -0.156         -0.195         -0.189         -0.128         -0.127         -0.124         -0.092          0.986         -0.988         -0.060         -0.082         -0.044         -0.032         -0.026          0.007          0.011          0.008          0.008         -0.022         -0.043         -0.007         -0.015         -0.002         -0.022          0.008          0.025          0.049          0.055         -0.184         -0.500          0.093          0.117          0.149          0.136          0.167          0.130          0.141          0.180          0.294          0.175          0.058          0.125          0.118          0.064         -0.084         -0.165         -0.110         -0.120         -0.152         -0.074         -0.062         -0.085         -0.109         -0.164         -0.037         -0.029         -0.085          2.847          0.078          0.042         -0.285          0.070         -0.102         -0.072          0.433          0.217          0.099          1.926          0.566          0.297          0.108         -0.088          2.697          0.296          0.014         -0.053          1.191         -0.064         -0.077         -0.104         -0.222         -0.153         -0.109         -0.143         -0.148         -0.088         -0.066         -0.091         -0.058         -0.052         -0.403         -0.058         -0.023         -0.021         -0.034         -0.029         -0.166          0.016         -0.039         -0.031         -0.301         -0.081          0.007         -0.017          0.028          0.039         -0.410          0.621         -0.217         -0.280          0.067          0.089          0.058          0.121          0.114          0.137          0.173          0.159          0.215          0.219          0.273          0.250          0.192          0.234          0.280          0.399          0.011         -0.147          0.442          0.412         -0.157         -0.271          2.970         -0.107         -0.140         -0.272         -0.140         -0.107         -0.029         -0.009         -0.115          0.019         -0.006         -0.091          0.282          0.295          2.206          0.299          0.385          0.649          0.539          0.257          0.883          0.812          0.032         -0.510         -1.934         -0.209         -0.772         -0.393         -0.227         -0.224         -0.218         -0.119         -0.124         -0.149         -0.096         -0.097         -0.109         -0.058          0.022          0.005          0.443         -0.037         -0.390         -0.196         -0.021         -0.034          0.017         -0.107          0.354        141.250