# Time	LEU-41	ALA-42	ILE-43	VAL-44	PHE-45	GLY-46	ASN-47	GLY-48	LEU-49	VAL-50	CYS-51	MET-52	ALA-53	VAL-54	LEU-55	LYS-56	GLU-57	ARG-58	ALA-59	LEU-60	GLN-61	THR-62	THR-63	THR-64	ASN-65	TYR-66	LEU-67	VAL-68	VAL-69	SER-70	LEU-71	ALA-72	VAL-73	ALA-74	ASH-75	LEU-76	LEU-77	VAL-78	ALA-79	THR-80	LEU-81	VAL-82	MET-83	PRO-84	TRP-85	VAL-86	VAL-87	TYR-88	LEU-89	GLU-90	VAL-91	THR-92	GLY-93	GLY-94	VAL-95	TRP-96	ASN-97	PHE-98	SER-99	ARG-100	ILE-101	CYS-102	CYX-103	ASP-104	VAL-105	PHE-106	VAL-107	THR-108	LEU-109	ASP-110	VAL-111	MET-112	MET-113	CYS-114	THR-115	ALA-116	SER-117	ILE-118	TRP-119	ASN-120	LEU-121	CYS-122	ALA-123	ILE-124	SER-125	ILE-126	ASP-127	ARG-128	TYR-129	THR-130	ALA-131	VAL-132	VAL-133	MET-134	PRO-135	VAL-136	HID-137	TYR-138	GLN-139	HID-140	GLY-141	THR-142	GLY-143	GLN-144	SER-145	SER-146	CYS-147	ARG-148	ARG-149	VAL-150	ALA-151	LEU-152	MET-153	ILE-154	THR-155	ALA-156	VAL-157	TRP-158	VAL-159	LEU-160	ALA-161	PHE-162	ALA-163	VAL-164	SER-165	CYS-166	PRO-167	LEU-168	LEU-169	PHE-170	GLY-171	PHE-172	ASN-173	THR-174	THR-175	GLY-176	ASP-177	PRO-178	THR-179	VAL-180	CYX-181	SER-182	ILE-183	SER-184	ASN-185	PRO-186	ASP-187	PHE-188	VAL-189	ILE-190	TYR-191	SER-192	SER-193	VAL-194	VAL-195	SER-196	PHE-197	TYR-198	LEU-199	PRO-200	PHE-201	GLY-202	VAL-203	THR-204	VAL-205	LEU-206	VAL-207	TYR-208	ALA-209	ARG-210	ILE-211	TYR-212	VAL-213	VAL-214	LEU-215	LYS-216	GLN-217	ARG-218	ARG-219	ARG-220	LYS-221	GLY-319	VAL-320	PRO-321	LEU-322	ARG-323	GLU-324	LYS-325	LYS-326	ALA-327	THR-328	GLN-329	MET-330	VAL-331	ALA-332	ILE-333	VAL-334	LEU-335	GLY-336	ALA-337	PHE-338	ILE-339	VAL-340	CYS-341	TRP-342	LEU-343	PRO-344	PHE-345	PHE-346	LEU-347	THR-348	HIE-349	VAL-350	LEU-351	ASN-352	THR-353	HID-354	CYX-355	GLN-356	THR-357	CYX-358	HID-359	VAL-360	SER-361	PRO-362	GLU-363	LEU-364	TYR-365	SER-366	ALA-367	THR-368	THR-369	TRP-370	LEU-371	GLY-372	TYR-373	VAL-374	ASN-375	SER-376	ALA-377	LEU-378	ASN-379	PRO-380	VAL-381	ILE-382	TYR-383	THR-384	THR-385	PHE-386	ASN-387	ILE-388	GLU-389	PHE-390	ARG-391	LYS-392	ALA-393	PHE-394	LEU-395	LYS-396	ILE-397	DPN-14602	
          0.000         14.936         -0.082         -0.132         -0.153          0.075          0.380          0.434          0.101          0.253          0.427          0.118          0.194          0.268          0.292          0.175          9.815         -9.669          8.199         -0.025         -0.156          0.045         -0.273         -0.168         -0.350         -0.653         -0.324         -0.470         -0.574         -0.489         -0.683         -0.688         -0.576         -0.359         -0.743         -1.958         -0.409         -0.439          0.134         -0.182         -0.320          0.019          0.748         -0.142         -0.117          0.918          1.113          0.350          1.126          1.318        -29.083          0.547         -0.112          0.258         -0.719          0.060          0.071          0.270          0.472         -0.881         17.660         -0.913         -0.668         -2.216        -24.737         -1.193         -1.680         -2.087         -1.198         -0.501       -107.606         -4.718         -0.554          2.392          0.146          0.920          1.029          1.147          1.306          1.289          0.690          0.850          0.814          0.512          0.514          0.412          0.415        -12.069         12.086          0.211          0.285          0.245          0.208          0.159         -0.019         -0.097         -0.077         -0.184          0.052          0.121         -0.042          0.114          0.049         -0.089         -0.024         -0.114         -0.260         -0.363          9.860         10.528         -0.353         -0.328         -0.422         -0.528         -0.557         -0.502         -0.494         -0.634         -1.002         -0.531         -0.635         -0.864         -0.991         -0.148         -0.206          0.445          0.238          0.781          0.932          0.272          0.429          0.484          0.340         -0.263         -0.407          1.156          0.944        -30.019         -0.055          1.489         -1.571          1.192         -1.053         -1.535         -0.762         -1.416         -1.035        -20.120         -1.546         -2.672         -1.082          0.304         -5.791         -2.236         -0.158          0.432         -1.912          0.375          0.650          0.545          0.858          0.494          0.362          0.513          0.480          0.340          0.291          0.349          0.243          0.258         10.010          0.287          0.183          0.174          0.197          0.205          8.814         -0.050          7.490          7.493          8.786          7.471          0.118          0.075         -0.173         -0.183          9.636        -10.518          8.571          9.088         -0.276         -0.347         -0.178         -0.466         -0.380         -0.366         -0.354         -0.416         -0.607         -0.396         -0.473         -0.919         -0.944         -0.510         -1.155         -2.307         -0.622          0.133         -4.887         -3.061         -0.044          1.590         -5.096         -0.050          0.253          2.478         -0.435          0.362         -0.107          0.277          0.617         -0.230         -0.134          0.182         -1.412         -1.306        -20.568         -0.884         -4.149         -0.931         -0.643         -1.371         -4.998         -2.219          0.633          3.346         -2.885          0.623          2.822          1.935          0.621          0.867          0.998          0.476          0.515          0.513          0.288          0.443          0.385          0.301          0.227         -0.000        -10.214          0.222         10.059          8.292          0.031          0.140         -0.127          9.069        -10.255       -142.187
       4000.000         14.749         -0.081         -0.226         -0.229          0.039          0.317          0.364          0.159          0.256          0.398          0.082          0.302          0.266          0.338          0.234         10.385         -9.785          8.513         -0.086         -0.162          0.309         -0.220         -0.111         -0.453         -0.651         -0.369         -0.525         -0.449         -0.661         -0.590         -0.796         -0.397         -0.336         -0.639         -1.756         -0.379         -0.329          0.224          0.003          0.086          0.239          0.910         -1.602          0.039          1.042          1.217          0.044          0.862          1.293        -27.006          0.464          0.326          0.733         -0.530         -0.052          0.134          0.345          0.524         -0.846         17.428         -0.976         -0.787         -2.051        -24.778         -1.314         -2.110         -3.096         -2.100         -0.972       -116.574         -8.806          0.062          2.473          1.709          1.175          1.015          1.531          1.372          1.387          0.868          0.867          1.058          0.513          0.542          0.527          0.378        -12.162         12.303          0.206          0.267          0.232          0.193          0.180         -0.012         -0.076         -0.051         -0.175          0.036         -0.164          0.023          0.159          0.034          0.080          0.010         -0.180         -0.316         -0.257          9.709         11.052         -0.354         -0.395         -0.417         -0.497         -0.593         -0.430         -0.425         -0.578         -0.863         -0.606         -0.504         -0.681         -0.781         -0.224         -0.078          0.207         -0.087          0.505          0.559          0.283         -0.010          0.328         -0.293         -0.359          0.308          0.074          0.918        -27.240         -0.217         -0.598         -1.109          1.525          0.001         -0.346         -0.352         -1.401         -0.863        -18.840         -0.680         -2.306         -1.034          0.298         -5.381         -0.574         -0.337          0.259         -3.624         -0.325          0.571          0.557          0.872          0.583          0.433          0.508          0.584          0.315          0.320          0.435          0.250          0.219         10.268          0.293          0.227          0.163          0.233          0.187          8.826          0.034          7.201          7.211          8.872          7.335         -0.046          0.111         -0.194         -0.206          9.893        -10.781          8.916         10.199         -0.322         -0.436         -0.122         -0.566         -0.488         -0.433         -0.489         -0.603         -0.813         -0.737         -0.722         -1.353         -1.418         -0.775         -0.802         -4.173         -1.229          0.226         -6.219         -4.251         -0.072          1.769         -1.055          0.223          0.556          2.862          0.042          0.539          0.032          0.267          0.601          0.016          0.080          0.317         -1.554         -1.322        -20.725         -1.211         -3.299         -2.769         -1.102         -2.522         -5.836         -3.132          0.510          4.331          2.473          0.914          4.052          2.026          0.642          0.965          1.375          0.519          0.525          0.565          0.433          0.436          0.449          0.310          0.317          0.020        -10.511          0.225         10.260          8.498          0.089          0.135         -0.103         10.028        -10.257       -141.183
       8000.000         15.102         -0.143         -0.171         -0.175         -0.011          0.418          0.757          0.175          0.231          0.438          0.124          0.225          0.274          0.346          0.229         10.211         -9.771          8.442         -0.071         -0.122          0.407         -0.269         -0.149         -0.380         -0.708         -0.321         -0.538         -0.647         -0.607         -0.477         -0.780         -0.536         -0.540         -0.678         -2.470         -0.457         -0.190          0.267         -0.064          0.411          0.185          0.332         -0.967         -0.230          1.184          1.248         -0.040          0.783          1.556        -28.689          0.262          0.375          1.026         -0.408         -0.400          0.175          0.157          0.443         -0.905         17.114         -0.966         -0.649         -1.904        -24.209         -1.117         -2.121         -2.705         -0.790         -0.745       -109.771         -8.115         -0.356          2.498          2.011          0.854          1.225          1.115          0.984          1.381          0.700          0.887          0.821          0.528          0.546          0.422          0.381        -12.051         12.322          0.204          0.304          0.255          0.229          0.190         -0.025         -0.109         -0.097         -0.177          0.036         -0.046         -0.077          0.158          0.073          0.060          0.041         -0.212         -0.259         -0.370          9.779         10.328         -0.339         -0.309         -0.416         -0.590         -0.571         -0.584         -0.390         -0.435         -1.002         -0.669         -0.294         -0.852         -0.700          0.023         -0.160          0.426          0.243          0.496          0.935          0.240          0.078          0.299          0.375         -0.460          0.233          0.304          0.779        -24.179         -0.307          0.216         -1.003          1.157         -1.340         -0.373          1.123         -1.593         -0.924        -18.891         -2.189         -2.010         -0.649          0.459         -5.849         -1.328         -0.511          0.305         -3.656          0.176          0.777          0.566          0.919          0.535          0.361          0.478          0.415          0.360          0.267          0.410          0.278          0.252         10.105          0.303          0.178          0.188          0.228          0.221          9.002          0.063          8.317          7.177          8.893          8.008         -0.025          0.088         -0.188         -0.198          8.940        -10.742          8.683          9.806         -0.320         -0.393         -0.174         -0.539         -0.490         -0.454         -0.452         -0.539         -0.759         -0.737         -0.699         -1.565         -1.300         -0.556         -0.649         -4.226         -1.099          0.178         -8.137         -3.524          0.297          1.862         -0.573          0.226          0.553          2.099          0.127          0.608          0.084         -0.032          0.720         -0.243          0.237          0.238         -1.399         -1.548        -21.155         -1.273         -6.152         -2.257         -1.204         -2.276         -7.083         -2.331          0.465          3.866         -0.211          0.682          3.601          1.560          0.606          0.848          1.407          0.499          0.511          0.545          0.416          0.416          0.414          0.283          0.255         -0.031        -10.330          0.154         10.610          8.733          0.134          0.149         -0.169          9.449        -10.473       -140.116
      12000.000         15.135         -0.118         -0.197         -0.193         -0.009          0.374          0.451          0.201          0.237          0.448          0.093          0.093          0.247          0.288          0.163          9.895         -9.682          8.228         -0.070         -0.151          0.276         -0.228         -0.096         -0.336         -0.620         -0.368         -0.482         -0.558         -0.510         -0.544         -0.757         -0.484         -0.449         -0.738         -1.976         -0.526          0.176         -0.058         -0.559          0.606          0.208          0.170         -0.029         -0.077          1.036          1.026          0.178          1.000          1.397        -26.137          0.371          0.160          0.469         -0.474          0.098         -0.076          0.306          0.584         -0.909         17.425         -0.909         -0.502         -2.211        -24.470         -1.326         -1.998         -3.407         -1.481         -0.895       -110.182         -7.546         -0.019          2.401          2.032          0.574          0.948          1.362          1.194          1.458          0.725          0.905          0.811          0.518          0.563          0.487          0.371        -12.052         12.292          0.238          0.237          0.250          0.216          0.195         -0.023         -0.038         -0.079         -0.231          0.052          0.149          0.103          0.195          0.024          0.063         -0.038         -0.211         -0.303         -0.291          9.712         10.375         -0.348         -0.401         -0.366         -0.407         -0.539         -0.453         -0.498         -0.819         -1.192         -0.496         -0.580         -0.937         -1.030         -0.198         -1.241         -0.054          0.142          0.546          1.019          0.459          0.477          0.440          0.039         -0.909         -0.317          0.433          0.920        -24.478          0.078          1.120         -0.489          1.016          0.224         -0.537         -0.435         -1.717         -1.024        -19.360         -1.310         -2.731         -0.693          0.720         -6.893         -1.035         -0.514          0.024         -3.933         -0.035          0.598          0.534          0.829          0.577          0.411          0.522          0.575          0.352          0.304          0.415          0.223          0.254         10.310          0.308          0.206          0.163          0.183          0.176          9.085         -0.068          7.918          7.163          9.006          7.768         -0.053          0.088         -0.201         -0.199         10.096        -10.681          8.836          9.467         -0.309         -0.465         -0.479         -0.629         -0.469         -0.376         -0.414         -0.552         -0.860         -0.633         -0.676         -1.250         -1.358         -0.759         -0.988         -3.902         -0.499          0.409         -6.975         -4.931         -0.176          2.052         -0.246          0.211          0.400          2.929          0.280          0.742          0.292          0.172          0.521         -0.299          0.040          0.278         -1.515         -1.431        -20.896         -1.446         -4.503         -2.260         -1.088         -2.303         -5.740         -2.767          0.301          3.837         -1.835          0.695          4.383          2.067          0.753          1.034          1.222          0.536          0.538          0.580          0.411          0.444          0.492          0.315          0.187         -0.016        -10.609          0.227         10.590          8.362          0.108          0.139         -0.134          9.070        -10.411       -138.562
      16000.000         14.633         -0.126         -0.173         -0.127          0.019          0.422          0.647          0.156          0.202          0.439          0.127          0.073          0.268          0.331          0.226         10.153         -9.854          8.405         -0.027         -0.143          0.088         -0.234         -0.134         -0.383         -0.642         -0.372         -0.520         -0.589         -0.519         -0.529         -0.810         -0.670         -0.513         -0.843         -2.227         -0.508         -0.126         -0.008         -0.138          0.659          0.253          0.886         -0.599          0.077          0.990          1.097          0.040          0.781          1.589        -25.468          0.393          0.425          0.887         -0.489         -0.189          0.091          0.243          0.461         -0.912         17.270         -0.831         -0.592         -2.058        -23.758         -1.638         -2.613         -3.052         -1.406         -0.766       -114.723         -7.019          0.339          2.790          1.564          0.467          0.903          0.877          1.163          1.334          0.247          0.870          0.839          0.547          0.574          0.534          0.402        -12.206         12.433          0.244          0.295          0.260          0.218          0.188          0.034         -0.034         -0.093         -0.173          0.018          0.154          0.055          0.097         -0.031         -0.124         -0.098         -0.307         -0.307         -0.297          9.607         10.486         -0.337         -0.425         -0.367         -0.510         -0.576         -0.463         -0.526         -0.772         -1.036         -0.571         -0.571         -1.185         -1.113         -0.156         -0.716          0.507          0.397          0.766          1.519          0.487          0.499          0.361         -0.429         -0.603          0.100          0.444          0.787        -27.210         -0.203          0.773         -0.989          1.346         -0.631         -0.464          2.776         -2.037         -1.197        -19.796         -2.089         -3.071         -0.779          0.551         -6.736          0.406         -0.133          0.373         -1.845         -0.125          0.367          0.501          0.826          0.493          0.299          0.442          0.573          0.254          0.284          0.432          0.203          0.247         10.326          0.320          0.214          0.163          0.218          0.219          9.372         -0.121          7.334          7.052          8.880          7.564         -0.057          0.126         -0.191         -0.211          9.965        -10.832          8.815          9.549         -0.321         -0.389         -0.156         -0.613         -0.482         -0.489         -0.485         -0.630         -0.738         -0.544         -0.760         -1.218         -1.544         -0.727         -0.626         -3.926         -0.811          0.232         -6.440         -4.508         -0.159          1.526          2.124          0.115          0.630          2.759          0.052          1.099          0.502          0.602          0.563         -0.126          0.034          0.330         -1.331         -1.243        -19.453         -1.189         -3.616         -2.959         -0.915         -2.761         -5.986         -3.311          0.511          4.635          1.216          0.815          3.967          2.382          0.720          1.025          1.393          0.500          0.555          0.587          0.420          0.391          0.437          0.303          0.177         -0.024         -9.695          0.144         10.612          8.415          0.114          0.171         -0.132         10.001        -10.560       -130.875
      20000.000         15.153          0.001         -0.142         -0.167         -0.059          0.433          0.615          0.187          0.296          0.448          0.143          0.134          0.273          0.294          0.216          9.681         -9.561          8.377         -0.062         -0.140          0.339         -0.252         -0.139         -0.360         -0.634         -0.401         -0.475         -0.587         -0.505         -0.596         -0.757         -0.718         -0.572         -0.896         -2.131         -0.667         -0.229          0.492         -0.182          0.770          0.433          0.719         -0.786         -0.238          1.188          0.742          0.090          0.895          1.493        -26.466          0.489          0.528          0.954         -0.446         -0.296         -0.169          0.340          0.670         -0.902         17.995         -0.910         -1.269         -2.247        -24.201         -1.326         -3.358         -3.839         -1.580         -0.482       -111.931         -7.938          0.264          2.849          2.212          1.105          0.881          1.025          1.259          1.312          0.490          0.768          0.689          0.512          0.533          0.481          0.357        -11.907         12.175          0.243          0.298          0.242          0.197          0.188          0.029         -0.037         -0.051         -0.153          0.089          0.161          0.014          0.103          0.024         -0.126         -0.178         -0.290         -0.299         -0.365          9.495         10.378         -0.364         -0.378         -0.391         -0.544         -0.562         -0.470         -0.416         -0.675         -0.980         -0.624         -0.618         -0.806         -0.604         -0.172         -0.274          0.219         -0.117          0.343          1.041          0.422          0.358          0.281         -0.565         -0.515         -0.179          0.219          0.834        -28.386         -0.170          1.068         -1.761          1.393         -0.431         -0.802          2.163         -0.744         -0.771        -19.091         -1.799         -2.892         -1.031          0.519         -2.617          0.058         -0.188          0.345         -3.355         -0.118          0.467          0.519          0.897          0.618          0.375          0.434          0.583          0.306          0.276          0.400          0.188          0.244         10.253          0.299          0.168          0.188          0.202          0.177          9.090         -0.015          7.220          7.086          8.782          6.934          0.058          0.090         -0.182         -0.196          9.708        -10.521          8.759          9.531         -0.276         -0.379         -0.404         -0.312         -0.441         -0.456         -0.475         -0.623         -0.805         -0.611         -0.723         -1.393         -1.484         -0.794          0.111         -3.844         -0.950          0.124         -8.222         -4.046          0.189          1.472          2.930          0.107          0.364          2.762         -0.345          0.569         -0.043          0.332          0.649         -0.253          0.074          0.314         -1.297         -1.356        -19.749         -1.170         -4.033         -1.810         -1.244         -2.363         -6.958         -3.190          0.469          4.274          2.408          0.716          4.191          1.970          0.784          0.966          1.342          0.504          0.557          0.584          0.379          0.427          0.465          0.319          0.337          0.013         -9.481          0.151         10.532          8.368          0.095          0.125         -0.174          9.381        -10.517       -131.330
      24000.000         14.797          0.055         -0.233         -0.161          0.052          0.435          0.580          0.172          0.203          0.424          0.194          0.327          0.254          0.291          0.200         10.407         -9.682          8.328         -0.088         -0.114          0.347         -0.252         -0.133         -0.265         -0.749         -0.386         -0.584         -0.620         -0.595         -0.480         -0.882         -0.356         -0.415         -0.550         -1.864         -0.363          0.037          0.322         -0.417          0.879          0.436          0.490         -2.018          0.119          1.129          0.943          0.043          0.478          1.703        -27.174          0.567          0.232          0.666         -0.521         -0.238         -0.014          0.110          0.630         -0.988         17.979         -1.089         -0.975         -2.467        -25.184         -1.508         -2.619         -3.226         -1.542         -0.404       -112.130         -6.907          0.027          2.664          6.344          1.002          1.029          1.126          1.066          1.234          0.696          0.834          0.778          0.525          0.557          0.527          0.381        -12.053         12.211          0.208          0.331          0.237          0.204          0.205         -0.034         -0.090         -0.071         -0.156          0.022          0.186          0.013          0.181          0.011          0.106          0.046         -0.176         -0.271         -0.279          9.449         10.302         -0.349         -0.351         -0.402         -0.424         -0.537         -0.407         -0.435         -0.757         -0.950         -0.557         -0.314         -0.870         -0.575         -0.197         -0.389          0.273          0.107          0.767          1.123          0.315          0.080          0.271         -0.284         -0.958         -0.217          0.414          1.011        -28.765         -0.239          0.639         -1.676          1.279          0.247         -0.609          2.416         -1.469         -0.663        -18.392         -1.168         -1.886         -0.687          0.853         -6.116         -0.725         -0.304          0.147         -2.607         -0.089         -0.385          0.455          0.850          0.468          0.261          0.476          0.549          0.327          0.256          0.355          0.209          0.233         10.085          0.294          0.159          0.146          0.211          0.185          8.983         -0.045          7.106          7.171          9.041          7.391         -0.014          0.110         -0.197         -0.208          9.792        -10.754          8.753          9.567         -0.301         -0.393         -0.080         -0.597         -0.427         -0.450         -0.510         -0.654         -0.845         -0.778         -0.787         -1.504         -1.164         -0.590         -1.175         -4.231         -0.820          0.302         -6.111         -1.639         -0.008          1.706         -1.030          0.248          0.543          2.679          0.227          0.702          0.345          0.302          0.614         -0.185          0.055          0.263         -1.376         -1.393        -19.756         -1.131         -3.821         -3.117         -1.487         -2.033         -5.333         -2.450          0.276          3.901          1.860          0.733          3.714          2.127          0.813          0.933          1.366          0.470          0.500          0.588          0.439          0.445          0.435          0.307         -0.075         -0.035         -9.506          0.185         10.444          8.655          0.101          0.152         -0.130          9.108        -10.225       -128.193