# Time	LEU-41	ALA-42	ILE-43	VAL-44	PHE-45	GLY-46	ASN-47	GLY-48	LEU-49	VAL-50	CYS-51	MET-52	ALA-53	VAL-54	LEU-55	LYS-56	GLU-57	ARG-58	ALA-59	LEU-60	GLN-61	THR-62	THR-63	THR-64	ASN-65	TYR-66	LEU-67	VAL-68	VAL-69	SER-70	LEU-71	ALA-72	VAL-73	ALA-74	ASH-75	LEU-76	LEU-77	VAL-78	ALA-79	THR-80	LEU-81	VAL-82	MET-83	PRO-84	TRP-85	VAL-86	VAL-87	TYR-88	LEU-89	GLU-90	VAL-91	THR-92	GLY-93	GLY-94	VAL-95	TRP-96	ASN-97	PHE-98	SER-99	ARG-100	ILE-101	CYS-102	CYX-103	ASP-104	VAL-105	PHE-106	VAL-107	THR-108	LEU-109	ASP-110	VAL-111	MET-112	MET-113	CYS-114	THR-115	ALA-116	SER-117	ILE-118	TRP-119	ASN-120	LEU-121	CYS-122	ALA-123	ILE-124	SER-125	ILE-126	ASP-127	ARG-128	TYR-129	THR-130	ALA-131	VAL-132	VAL-133	MET-134	PRO-135	VAL-136	HID-137	TYR-138	GLN-139	HID-140	GLY-141	THR-142	GLY-143	GLN-144	SER-145	SER-146	CYS-147	ARG-148	ARG-149	VAL-150	ALA-151	LEU-152	MET-153	ILE-154	THR-155	ALA-156	VAL-157	TRP-158	VAL-159	LEU-160	ALA-161	PHE-162	ALA-163	VAL-164	SER-165	CYS-166	PRO-167	LEU-168	LEU-169	PHE-170	GLY-171	PHE-172	ASN-173	THR-174	THR-175	GLY-176	ASP-177	PRO-178	THR-179	VAL-180	CYX-181	SER-182	ILE-183	SER-184	ASN-185	PRO-186	ASP-187	PHE-188	VAL-189	ILE-190	TYR-191	SER-192	SER-193	VAL-194	VAL-195	SER-196	PHE-197	TYR-198	LEU-199	PRO-200	PHE-201	GLY-202	VAL-203	THR-204	VAL-205	LEU-206	VAL-207	TYR-208	ALA-209	ARG-210	ILE-211	TYR-212	VAL-213	VAL-214	LEU-215	LYS-216	GLN-217	ARG-218	ARG-219	ARG-220	LYS-221	GLY-319	VAL-320	PRO-321	LEU-322	ARG-323	GLU-324	LYS-325	LYS-326	ALA-327	THR-328	GLN-329	MET-330	VAL-331	ALA-332	ILE-333	VAL-334	LEU-335	GLY-336	ALA-337	PHE-338	ILE-339	VAL-340	CYS-341	TRP-342	LEU-343	PRO-344	PHE-345	PHE-346	LEU-347	THR-348	HIE-349	VAL-350	LEU-351	ASN-352	THR-353	HID-354	CYX-355	GLN-356	THR-357	CYX-358	HID-359	VAL-360	SER-361	PRO-362	GLU-363	LEU-364	TYR-365	SER-366	ALA-367	THR-368	THR-369	TRP-370	LEU-371	GLY-372	TYR-373	VAL-374	ASN-375	SER-376	ALA-377	LEU-378	ASN-379	PRO-380	VAL-381	ILE-382	TYR-383	THR-384	THR-385	PHE-386	ASN-387	ILE-388	GLU-389	PHE-390	ARG-391	LYS-392	ALA-393	PHE-394	LEU-395	LYS-396	ILE-397	DPN-14602	
          0.000         -1.198          0.006          0.019          0.065          0.038         -0.106         -0.172         -0.055         -0.045         -0.096         -0.022         -0.021         -0.048         -0.051         -0.032         -0.398          0.471         -0.118          0.007          0.021         -0.048          0.041          0.038          0.074          0.120          0.077          0.100          0.106          0.115          0.194          0.106          0.125          0.180          0.298          0.022          0.171          0.236          0.270          0.183         -0.035          0.037         -0.157         -0.106         -0.032         -0.461         -0.562         -0.247         -0.241         -0.292          2.937         -0.133         -0.158         -0.078         -0.104          0.061         -0.031         -0.142          0.155          0.298         -3.200          0.208          0.254          0.372          3.827          0.316          0.947          0.521         -0.045         -0.242         44.580          0.714         -0.413         -0.778         -0.475         -0.230         -0.210         -0.373         -0.189         -0.211         -0.070         -0.137         -0.159         -0.107         -0.099         -0.097         -0.083          0.879         -0.908         -0.050         -0.064         -0.035         -0.035         -0.028         -0.008          0.012          0.008         -0.007         -0.018         -0.030          0.001         -0.007         -0.004         -0.000         -0.011         -0.017          0.040          0.053         -0.153         -0.225          0.091          0.117          0.130          0.144          0.160          0.141          0.154          0.143          0.289          0.141          0.137          0.123          0.143          0.061         -0.039         -0.047         -0.120         -0.097         -0.162         -0.114         -0.039         -0.002         -0.087          0.162         -0.184         -0.161         -0.001          2.059          0.168          0.079          0.022          0.076          0.220          0.562          0.042          0.285          0.184          2.772          0.870          0.871          0.134         -0.107          3.065         -0.171         -0.153         -0.181          0.036         -0.154         -0.222         -0.140         -0.182         -0.141         -0.120         -0.105         -0.147         -0.117         -0.060         -0.083         -0.067         -0.040         -0.378         -0.055         -0.023         -0.019         -0.023         -0.029         -0.121          0.006         -0.024         -0.036         -0.215         -0.197          0.008         -0.014          0.026          0.033         -0.422          0.595         -0.256         -0.263          0.062          0.085          0.092          0.090          0.089          0.101          0.127          0.126          0.158          0.150          0.164          0.181          0.192          0.177          0.133          0.461          0.070          0.006          0.484          0.481         -0.073         -0.044          2.308         -0.022         -0.114         -0.483         -0.113         -0.232         -0.144         -0.124          0.000         -0.072         -0.005         -0.068          0.252          0.317          2.011          0.215          1.543          0.584          0.262          0.083          0.258          0.426         -0.009         -0.117         -1.487         -0.094         -0.270         -0.222         -0.179         -0.168         -0.103         -0.115         -0.105         -0.108         -0.083         -0.060         -0.087         -0.054         -0.042         -0.004          0.505         -0.030         -0.216         -0.156         -0.012         -0.022         -0.027         -0.166          0.166        142.184
       4000.000         -1.103         -0.002          0.082          0.096          0.047         -0.093         -0.180         -0.047         -0.044         -0.088         -0.007         -0.045         -0.048         -0.056         -0.034         -0.336          0.480         -0.122          0.013          0.027         -0.043          0.055          0.042          0.092          0.120          0.097          0.119          0.129          0.128          0.179          0.133          0.163          0.174          0.341          0.178          0.200          0.233          0.228          0.160         -0.172         -0.005         -0.299          0.447         -0.067         -0.646         -0.693         -0.289         -0.257         -0.325          2.350         -0.120         -0.088         -0.073         -0.066          0.034         -0.064         -0.130          0.161          0.282         -2.561          0.231          0.252          0.388          3.490          0.326          0.738          0.988          0.090         -0.102         44.320          0.712         -0.364         -0.830         -0.243         -0.107         -0.218         -0.435         -0.221         -0.249         -0.083         -0.158         -0.161         -0.110         -0.116         -0.103         -0.086          0.938         -0.981         -0.044         -0.072         -0.036         -0.039         -0.030         -0.002          0.009          0.010          0.001         -0.025          0.033         -0.002         -0.005         -0.010         -0.006         -0.015         -0.013          0.046          0.042         -0.166         -0.241          0.081          0.126          0.147          0.096          0.159          0.148          0.169          0.131          0.327          0.162          0.140          0.067          0.127          0.031          0.006         -0.079         -0.023         -0.133         -0.242         -0.154         -0.043          0.007         -0.039          0.178         -0.130         -0.151         -0.016          1.673          0.119          0.015          0.052          0.121          0.251          0.153          0.085          0.269          0.192          2.543          1.292          1.027          0.175         -0.143          3.369          0.055         -0.170         -0.205          0.094         -0.175         -0.174         -0.164         -0.190         -0.111         -0.149         -0.103         -0.107         -0.101         -0.056         -0.081         -0.073         -0.044         -0.404         -0.062         -0.021         -0.023         -0.032         -0.036         -0.137          0.018         -0.036         -0.039         -0.235         -0.270          0.006         -0.008          0.031          0.031         -0.485          0.650         -0.352         -0.347          0.067          0.090          0.135          0.110          0.112          0.130          0.149          0.148          0.155          0.168          0.215          0.233          0.247          0.161          0.117          0.722          0.027         -0.062          0.653          0.595         -0.140         -0.097          2.072         -0.119         -0.102         -0.188         -0.085         -0.184         -0.140         -0.043          0.031         -0.054         -0.059         -0.047          0.198          0.265          1.833          0.293          0.430          0.673          0.456          0.318          0.930          0.679         -0.043         -0.520         -1.006         -0.219         -0.398         -0.319         -0.217         -0.213         -0.155         -0.124         -0.131         -0.134         -0.081         -0.091         -0.099         -0.058         -0.035          0.004          0.437         -0.036         -0.505         -0.151         -0.016         -0.035         -0.025         -0.101          0.097        141.396
       8000.000         -1.221         -0.002          0.010          0.071          0.019         -0.112         -0.122         -0.055         -0.050         -0.094         -0.015         -0.027         -0.054         -0.063         -0.043         -0.425          0.507         -0.285          0.006          0.012         -0.049          0.035          0.030          0.081          0.117          0.081          0.106          0.116          0.111          0.213          0.081          0.137          0.136          0.236         -0.019          0.208          0.156          0.266          0.152         -0.140          0.038         -0.171          0.211         -0.084         -0.479         -0.443         -0.188         -0.271         -0.289          3.249         -0.128         -0.097         -0.084         -0.022          0.067         -0.101         -0.098          0.165          0.263         -2.884          0.193          0.226          0.302          3.558          0.299          0.553          0.744          0.034         -0.120         40.239          0.614         -0.212         -0.710         -0.673         -0.191         -0.203         -0.431         -0.234         -0.209         -0.119         -0.151         -0.173         -0.111         -0.103         -0.095         -0.082          0.948         -0.956         -0.038         -0.067         -0.037         -0.036         -0.029         -0.007          0.011          0.012          0.008         -0.033          0.045          0.003         -0.008         -0.012         -0.011         -0.005          0.003          0.045          0.042         -0.197         -0.242          0.084          0.118          0.126          0.073          0.167          0.128          0.169          0.140          0.324          0.177          0.116          0.121          0.139          0.031         -0.007         -0.080         -0.025         -0.093         -0.162         -0.108         -0.060         -0.043         -0.117          0.109         -0.122         -0.120         -0.041          1.880          0.152          0.082          0.061          0.080          0.375          0.307         -0.041          0.392          0.220          2.893          0.909          0.396          0.162         -0.106          3.634          0.074         -0.103         -0.201          0.039         -0.157         -0.149         -0.137         -0.198         -0.192         -0.115         -0.126         -0.110         -0.091         -0.044         -0.071         -0.054         -0.047         -0.442         -0.052         -0.027         -0.022         -0.030         -0.030         -0.106          0.024         -0.045         -0.057         -0.267         -0.245          0.002         -0.016          0.024          0.032         -0.495          0.649         -0.276         -0.304          0.060          0.093          0.089          0.106          0.109          0.115          0.146          0.150          0.157          0.169          0.194          0.201          0.222          0.203          0.240          0.525          0.093         -0.009          1.181          0.874         -0.071         -0.063          3.471         -0.089         -0.117          0.011         -0.222         -0.337         -0.154         -0.110          0.091         -0.054         -0.096         -0.076          0.251          0.372          2.217          0.284          0.425          0.758          0.391          0.160          1.657          0.512         -0.090         -0.223         -2.606         -0.264         -0.028         -0.182         -0.230         -0.245         -0.046         -0.126         -0.132         -0.126         -0.077         -0.102         -0.097         -0.056         -0.065         -0.001          0.497         -0.028         -0.425         -0.195         -0.015         -0.025         -0.026         -0.174          0.148        141.144
      12000.000         -1.110          0.033          0.066          0.075          0.019         -0.104         -0.176         -0.045         -0.039         -0.074         -0.061         -0.016         -0.052         -0.052         -0.043         -0.381          0.496         -0.140          0.009          0.031         -0.046          0.055          0.045          0.095          0.131          0.104          0.119          0.100          0.114          0.203          0.090          0.128          0.143          0.218          0.098          0.172          0.158          0.257          0.088         -0.136         -0.000         -0.214          0.225         -0.080         -0.426         -0.510         -0.185         -0.253         -0.259          3.229         -0.106         -0.077         -0.098         -0.111          0.037         -0.069         -0.090          0.129          0.265         -2.545          0.206          0.235          0.287          3.348          0.302          0.668          0.542          0.019         -0.061         38.394          0.646         -0.209         -0.476         -0.459         -0.271         -0.200         -0.476         -0.297         -0.269         -0.138         -0.175         -0.205         -0.134         -0.126         -0.106         -0.092          1.119         -1.103         -0.048         -0.071         -0.045         -0.044         -0.031         -0.018          0.010          0.013          0.009         -0.027         -0.034         -0.018         -0.008         -0.022         -0.007          0.001         -0.004          0.075          0.058         -0.232         -0.277          0.099          0.125          0.168          0.110          0.186          0.187          0.189          0.183          0.347          0.169          0.129          0.069          0.050          0.025         -0.105         -0.070         -0.091         -0.097         -0.152         -0.066         -0.032         -0.015         -0.087          0.109         -0.125         -0.191         -0.055          1.602          0.154          0.077          0.035          0.072          0.299          0.266         -0.038          0.224          0.130          1.950          0.243          0.123          0.087         -0.071          2.344          0.445         -0.003         -0.084          0.979         -0.045         -0.086         -0.132         -0.242         -0.156         -0.149         -0.136         -0.126         -0.089         -0.075         -0.085         -0.085         -0.056         -0.504         -0.067         -0.019         -0.028         -0.034         -0.044         -0.186          0.011         -0.044         -0.077         -0.277         -0.297          0.007         -0.008          0.035          0.033         -0.498          0.686         -0.361         -0.441          0.073          0.097          0.110          0.116          0.112          0.139          0.168          0.159          0.182          0.171          0.205          0.188          0.239          0.181          0.271          0.540          0.086         -0.047          1.307          0.752         -0.137         -0.139          2.290         -0.123         -0.164         -0.084         -0.160         -0.221         -0.121         -0.044          0.071         -0.048         -0.028         -0.052          0.303          0.308          1.954          0.310          0.745          0.860          0.432          0.125          1.429          0.774         -0.066         -0.182         -2.532         -0.218         -0.112         -0.185         -0.230         -0.214         -0.093         -0.109         -0.127         -0.144         -0.060         -0.076         -0.092         -0.058          0.064         -0.008          0.540         -0.036         -0.258         -0.225         -0.006         -0.022         -0.022         -0.151          0.211        141.573
      16000.000         -0.971          0.023          0.013          0.059          0.033         -0.091         -0.099         -0.035         -0.044         -0.083         -0.003         -0.004         -0.040         -0.044         -0.035         -0.355          0.407         -0.115         -0.001          0.019         -0.046          0.040          0.036          0.071          0.116          0.080          0.107          0.121          0.120          0.159          0.107          0.124          0.152          0.215          0.195          0.162          0.094          0.174          0.151         -0.137          0.022         -0.283         -0.099         -0.012         -0.335         -0.494         -0.148         -0.224         -0.238          2.338         -0.115         -0.136         -0.078         -0.060          0.034         -0.035         -0.027          0.152          0.237         -3.646          0.229          0.321          0.366          4.231          0.370          0.790          0.936          0.031         -0.148         44.694          0.453         -0.284         -0.560         -0.178         -0.150         -0.200         -0.328         -0.202         -0.193         -0.086         -0.135         -0.146         -0.104         -0.101         -0.105         -0.077          0.841         -0.863         -0.047         -0.061         -0.030         -0.032         -0.027         -0.004          0.007          0.008         -0.005         -0.026         -0.028         -0.015         -0.008         -0.007         -0.007          0.004         -0.002          0.059          0.036         -0.145         -0.185          0.077          0.116          0.109          0.093          0.157          0.119          0.153          0.139          0.278          0.187          0.134          0.159          0.155          0.113          0.065          0.097         -0.070         -0.127         -0.231         -0.064         -0.051          0.002         -0.090          0.216         -0.148         -0.087         -0.021          2.316          0.146          0.083          0.058         -0.171          0.719          0.106         -0.128          0.067          0.204          3.287          1.011          0.909          0.097         -0.258          3.436         -0.137         -0.194         -0.180          0.160         -0.195         -0.238         -0.130         -0.177         -0.181         -0.128         -0.119         -0.113         -0.079         -0.066         -0.076         -0.049         -0.045         -0.320         -0.046         -0.020         -0.018         -0.020         -0.022         -0.100          0.010         -0.023         -0.038         -0.198         -0.229          0.005         -0.009          0.026          0.032         -0.350          0.540         -0.229         -0.276          0.051          0.061          0.096          0.092          0.094          0.095          0.120          0.121          0.135          0.141          0.159          0.178          0.206          0.189          0.253          0.429          0.110          0.046          0.939          0.705         -0.023          0.017          2.472         -0.039         -0.144          0.094         -0.283         -0.241         -0.197         -0.171          0.126         -0.061         -0.101         -0.066          0.315          0.282          2.245          0.219          1.430          0.511          0.240         -0.007          0.452          0.420         -0.093         -0.281         -1.426         -0.104         -0.116         -0.056         -0.143         -0.153         -0.185         -0.104         -0.108         -0.112         -0.067         -0.074         -0.082         -0.049         -0.043          0.000          0.360         -0.032         -0.228         -0.126         -0.012         -0.028         -0.020         -0.107          0.167        136.534
      20000.000         -1.024          0.016          0.060          0.074          0.016         -0.107         -0.089         -0.045         -0.043         -0.079          0.006         -0.035         -0.051         -0.059         -0.044         -0.301          0.419         -0.259         -0.004          0.023         -0.043          0.044          0.035          0.076          0.138          0.084          0.105          0.126          0.133          0.207          0.157          0.178          0.189          0.256          0.229          0.188          0.189          0.219          0.217         -0.137          0.036         -0.242          0.057         -0.055         -0.598         -0.691         -0.230         -0.246         -0.257          2.333         -0.135         -0.161         -0.080         -0.027          0.043          0.013         -0.024          0.159          0.276         -2.613          0.195          0.234          0.330          3.308          0.323          0.855          0.696          0.039         -0.112         40.859          0.903         -0.161         -0.755         -0.698         -0.209         -0.219         -0.306         -0.155         -0.146         -0.099         -0.146         -0.165         -0.103         -0.102         -0.068         -0.071          0.897         -0.901         -0.064         -0.059         -0.040         -0.040         -0.027         -0.002          0.004          0.010         -0.001         -0.028         -0.014         -0.001         -0.011         -0.015         -0.006         -0.004          0.004          0.037          0.040         -0.154         -0.219          0.069          0.085          0.118          0.083          0.133          0.139          0.114          0.113          0.251          0.165          0.094          0.080          0.103          0.046         -0.025          0.052         -0.039         -0.095         -0.144         -0.074         -0.030          0.032         -0.071          0.058         -0.068         -0.010         -0.025          1.657          0.129          0.036          0.051          0.103         -0.219          0.407          0.110          0.183          0.161          2.255          0.594          0.037          0.035         -0.169          3.158          0.069         -0.074         -0.073          0.132         -0.061         -0.061         -0.069         -0.109         -0.179         -0.082         -0.099         -0.064         -0.070         -0.041         -0.072         -0.063         -0.043         -0.382         -0.054         -0.016         -0.023         -0.029         -0.031         -0.133          0.009         -0.081         -0.041         -0.211         -0.245          0.005         -0.011          0.029          0.032         -0.395          0.578         -0.285         -0.246          0.064          0.082          0.098          0.113          0.104          0.113          0.136          0.141          0.159          0.176          0.230          0.278          0.215          0.218          0.222          0.567          0.079         -0.010          1.219          0.956         -0.076         -0.073          4.301         -0.030         -0.166         -0.029         -0.290         -0.313         -0.149         -0.045          0.051         -0.070         -0.052         -0.206          0.348          0.410          2.143          0.338          0.948          0.921          0.382          0.194          2.273          0.581         -0.061         -0.696         -0.087         -0.231         -0.241         -0.404         -0.224         -0.215         -0.257         -0.111         -0.116         -0.127         -0.079         -0.101         -0.094         -0.059         -0.065          0.004          0.381         -0.031         -0.237         -0.110         -0.014         -0.023         -0.024         -0.149          0.196        144.032
      24000.000         -1.168          0.017          0.045          0.089          0.055         -0.108         -0.159         -0.064         -0.039         -0.092         -0.012         -0.034         -0.054         -0.056         -0.042         -0.348          0.523         -0.164          0.004          0.019         -0.059          0.060          0.039          0.080          0.124          0.102          0.129          0.129          0.136          0.209          0.139          0.153          0.183          0.231          0.205          0.184          0.115          0.248          0.131         -0.149          0.010         -0.208         -0.111         -0.104         -0.601         -0.566         -0.233         -0.222         -0.295          2.444         -0.116         -0.107         -0.081         -0.000          0.035         -0.071         -0.019          0.142          0.255         -2.982          0.232          0.220          0.256          3.715          0.410          0.963          1.035          0.147         -0.134         50.074          0.921         -0.092         -0.927         -1.155         -0.318         -0.288         -0.495         -0.257         -0.272         -0.135         -0.200         -0.170         -0.118         -0.117         -0.097         -0.100          1.040         -1.073         -0.063         -0.071         -0.046         -0.045         -0.032         -0.022          0.007          0.008         -0.002         -0.020          0.023         -0.018         -0.013         -0.007         -0.008         -0.005          0.006          0.043          0.050         -0.180         -0.253          0.096          0.128          0.174          0.111          0.197          0.150          0.163          0.175          0.345          0.168          0.168          0.153          0.088          0.045         -0.036         -0.076         -0.102         -0.145         -0.242         -0.110         -0.085         -0.043         -0.107          0.221         -0.124         -0.040         -0.003          2.027          0.091          0.027          0.043          0.034          0.142          0.307          0.098          0.200          0.149          2.673          0.595          0.154         -0.027         -0.233          2.810          0.158         -0.055         -0.059          0.596         -0.025         -0.059         -0.101         -0.196         -0.167         -0.129         -0.127         -0.128         -0.105         -0.052         -0.084         -0.081         -0.064         -0.499         -0.068         -0.032         -0.028         -0.031         -0.034         -0.167          0.013         -0.028         -0.051         -0.265         -0.295          0.005         -0.012          0.037          0.040         -0.512          0.743         -0.339         -0.458          0.062          0.082          0.122          0.135          0.130          0.116          0.158          0.174          0.183          0.176          0.197          0.206          0.267          0.172          0.133          0.173          0.104         -0.020          1.194          0.783         -0.076         -0.115          3.276         -0.108         -0.130         -0.549         -0.207         -0.319         -0.155         -0.110          0.088          0.001         -0.024         -0.081          0.298          0.244          1.478          0.206          0.491          0.540          0.338          0.070          0.562          0.544          0.033          0.019          1.108         -0.116         -0.122         -0.074         -0.235         -0.182         -0.146         -0.114         -0.141         -0.136         -0.072         -0.097         -0.107         -0.071         -0.055         -0.012          0.463         -0.043         -0.321         -0.169         -0.018         -0.038         -0.021         -0.185          0.236        142.942