# Time	LEU-41	ALA-42	ILE-43	VAL-44	PHE-45	GLY-46	ASN-47	GLY-48	LEU-49	VAL-50	CYS-51	MET-52	ALA-53	VAL-54	LEU-55	LYS-56	GLU-57	ARG-58	ALA-59	LEU-60	GLN-61	THR-62	THR-63	THR-64	ASN-65	TYR-66	LEU-67	VAL-68	VAL-69	SER-70	LEU-71	ALA-72	VAL-73	ALA-74	ASH-75	LEU-76	LEU-77	VAL-78	ALA-79	THR-80	LEU-81	VAL-82	MET-83	PRO-84	TRP-85	VAL-86	VAL-87	TYR-88	LEU-89	GLU-90	VAL-91	THR-92	GLY-93	GLY-94	VAL-95	TRP-96	ASN-97	PHE-98	SER-99	ARG-100	ILE-101	CYS-102	CYX-103	ASP-104	VAL-105	PHE-106	VAL-107	THR-108	LEU-109	ASP-110	VAL-111	MET-112	MET-113	CYS-114	THR-115	ALA-116	SER-117	ILE-118	TRP-119	ASN-120	LEU-121	CYS-122	ALA-123	ILE-124	SER-125	ILE-126	ASP-127	ARG-128	TYR-129	THR-130	ALA-131	VAL-132	VAL-133	MET-134	PRO-135	VAL-136	HID-137	TYR-138	GLN-139	HID-140	GLY-141	THR-142	GLY-143	GLN-144	SER-145	SER-146	CYS-147	ARG-148	ARG-149	VAL-150	ALA-151	LEU-152	MET-153	ILE-154	THR-155	ALA-156	VAL-157	TRP-158	VAL-159	LEU-160	ALA-161	PHE-162	ALA-163	VAL-164	SER-165	CYS-166	PRO-167	LEU-168	LEU-169	PHE-170	GLY-171	PHE-172	ASN-173	THR-174	THR-175	GLY-176	ASP-177	PRO-178	THR-179	VAL-180	CYX-181	SER-182	ILE-183	SER-184	ASN-185	PRO-186	ASP-187	PHE-188	VAL-189	ILE-190	TYR-191	SER-192	SER-193	VAL-194	VAL-195	SER-196	PHE-197	TYR-198	LEU-199	PRO-200	PHE-201	GLY-202	VAL-203	THR-204	VAL-205	LEU-206	VAL-207	TYR-208	ALA-209	ARG-210	ILE-211	TYR-212	VAL-213	VAL-214	LEU-215	LYS-216	GLN-217	ARG-218	ARG-219	ARG-220	LYS-221	GLY-319	VAL-320	PRO-321	LEU-322	ARG-323	GLU-324	LYS-325	LYS-326	ALA-327	THR-328	GLN-329	MET-330	VAL-331	ALA-332	ILE-333	VAL-334	LEU-335	GLY-336	ALA-337	PHE-338	ILE-339	VAL-340	CYS-341	TRP-342	LEU-343	PRO-344	PHE-345	PHE-346	LEU-347	THR-348	HIE-349	VAL-350	LEU-351	ASN-352	THR-353	HID-354	CYX-355	GLN-356	THR-357	CYX-358	HID-359	VAL-360	SER-361	PRO-362	GLU-363	LEU-364	TYR-365	SER-366	ALA-367	THR-368	THR-369	TRP-370	LEU-371	GLY-372	TYR-373	VAL-374	ASN-375	SER-376	ALA-377	LEU-378	ASN-379	PRO-380	VAL-381	ILE-382	TYR-383	THR-384	THR-385	PHE-386	ASN-387	ILE-388	GLU-389	PHE-390	ARG-391	LYS-392	ALA-393	PHE-394	LEU-395	LYS-396	ILE-397	DPN-14602	
          0.000         16.400          0.055          0.047         -0.128          0.025          0.471          0.577          0.148          0.237          0.498          0.143          0.181          0.267          0.305          0.208         10.225         -9.833          8.392         -0.041         -0.104          0.320         -0.253         -0.275         -0.492         -0.664         -0.346         -0.527         -0.592         -0.548         -0.519         -0.879         -0.588         -0.602         -0.908         -2.228         -0.445         -0.357          0.011         -0.141          0.621          0.357          0.462          0.287         -0.146          0.728          1.003          0.149          0.568          1.537        -26.743          0.428          0.495          0.520          0.413         -0.250         -0.076          0.539         -0.562         -1.228         23.489         -0.758         -0.827         -2.090        -24.230         -1.184         -2.373         -3.043         -1.223         -0.379       -111.092         -7.701          0.068          2.687          1.231          0.048          1.150          2.303          0.884          0.863          0.488          0.875          0.756          0.480          0.547          0.508          0.373        -12.274         12.519          0.289          0.292          0.220          0.241          0.188          0.005         -0.112         -0.064         -0.134          0.074          0.166          0.002          0.065          0.018         -0.064         -0.005          0.076         -0.227         -0.362          9.481          9.810         -0.349         -0.372         -0.377         -0.459         -0.562         -0.490         -0.449         -0.543         -0.955         -0.486         -0.333         -0.680         -0.827         -0.098          0.168          0.454          0.486          0.340          0.628          0.406          0.164         -0.055          0.230         -0.625          0.567         -0.046          0.090        -19.640         -0.685         -0.356         -0.119         -0.085          1.895         -3.250         -0.388         -2.329         -1.393        -20.602         -3.643         -4.090         -1.454          0.282         -7.146          1.602          0.142          0.799         -0.672          0.066          0.347          0.493          0.669          0.501          0.286          0.418          0.587          0.405          0.258          0.351          0.250          0.228         10.555          0.297          0.145          0.149          0.186          0.233          9.547          0.078          7.782          7.512          9.139          8.575         -0.027          0.100         -0.200         -0.213          9.907        -10.928          8.942          9.718         -0.317         -0.425         -0.391         -0.492         -0.442         -0.415         -0.429         -0.654         -0.903         -0.655         -0.765         -1.117         -0.971         -0.560         -0.618         -3.329         -1.099         -0.231         -4.045         -3.532         -0.304          0.144         -3.802          0.653          0.556          2.862          0.921          1.284          0.679          0.481          0.194          0.094          0.050          0.223         -1.388         -1.380        -20.677         -0.955         -4.176         -2.456         -0.821         -2.013         -4.736         -1.584          0.713          2.003          1.203          0.550          0.607          2.340          0.750          0.953          1.368          0.517          0.526          0.557          0.510          0.383          0.416          0.313          0.278          0.011        -10.337          0.152          9.664          8.586          0.064          0.095          0.177          9.113         -9.984       -125.750
       4000.000         15.154          0.072         -0.138         -0.224         -0.075          0.325          0.571          0.136          0.199          0.426          0.090          0.191          0.258          0.310          0.207          9.867         -9.782          8.489         -0.070         -0.149          0.329         -0.331         -0.292         -0.551         -0.681         -0.429         -0.551         -0.586         -0.525         -0.410         -0.824         -0.626         -0.493         -0.918         -2.165         -0.439         -0.233          0.102         -0.064          0.987          0.429          0.841         -2.326         -0.068          1.228          1.181          0.207          0.785          1.473        -22.513          0.306          0.124          0.604          0.152         -0.121          0.201          0.692         -0.563         -1.327         22.440         -0.933         -0.841         -2.008        -24.500         -1.438         -2.009         -3.539         -1.844         -0.805       -115.017         -9.259         -0.408          3.034          2.928         -0.974          0.856          2.423          0.911          1.194          0.600          0.936          0.936          0.528          0.596          0.533          0.371        -12.556         12.843          0.330          0.318          0.220          0.258          0.197          0.000         -0.091         -0.078         -0.160          0.123         -0.186          0.056          0.056          0.043         -0.048          0.035          0.020         -0.256         -0.338          9.565          9.762         -0.344         -0.410         -0.439         -0.194         -0.566         -0.506         -0.497         -0.668         -1.153         -0.555         -0.483         -0.581         -0.809          0.079         -0.066          0.415         -0.098          0.522          1.050          0.508          0.121         -0.091          0.194         -0.872          0.458          0.234          0.191        -18.354         -0.672         -0.303         -0.360         -1.109          2.107         -0.502         -0.149         -2.297         -1.169        -20.556         -4.801         -3.457         -1.125          0.622        -10.689          0.617          0.091          0.913         -1.016          0.178          0.886          0.631          0.851          0.562          0.419          0.466          0.546          0.375          0.269          0.369          0.291          0.172         10.548          0.342          0.189          0.181          0.222          0.245          9.865         -0.029          7.573          7.479          9.185          8.924         -0.012          0.074         -0.218         -0.196         10.107        -11.152          9.690         10.056         -0.328         -0.435         -0.414         -0.527         -0.519         -0.484         -0.428         -0.671         -0.868         -0.683         -0.864         -1.174         -1.473         -0.706         -0.137         -5.315         -0.875          0.181         -3.936         -2.368          0.009         -0.095         -2.286          0.563          0.628          2.268          1.301          1.228          0.945          0.244         -0.266          0.097          0.087          0.032         -1.187         -1.318        -19.603         -1.032         -3.619         -3.014         -1.107         -1.809         -4.868         -1.731          0.381          3.916          1.246          0.801          1.157          2.235          0.832          0.953          1.615          0.501          0.546          0.585          0.465          0.409          0.463          0.333          0.175         -0.034         -9.718          0.138         10.788          8.642          0.110          0.157          0.168          8.547         -8.613       -124.147
       8000.000         15.735          0.032          0.007         -0.143          0.054          0.418          0.396          0.136          0.250          0.509          0.127          0.284          0.305          0.375          0.242         10.733        -10.008          9.297         -0.038         -0.057          0.371         -0.251         -0.236         -0.526         -0.749         -0.374         -0.528         -0.609         -0.475         -0.694         -0.790         -0.637         -0.320         -0.705         -2.184         -0.581          0.027          0.194         -0.127          0.872          0.223          0.921         -0.759          0.146          0.907          0.688          0.191          1.040          1.277        -26.499          0.486          0.258          0.374         -0.148         -0.201          0.186          0.482         -0.674         -1.293         22.417         -0.847         -0.779         -1.951        -23.942         -1.402         -2.342         -3.623         -1.444         -0.734       -113.774         -8.807          0.084          2.582          0.494          1.185          1.098          2.901          1.495          1.181          0.650          0.883          0.841          0.578          0.565          0.482          0.380        -12.823         12.942          0.251          0.312          0.241          0.250          0.202          0.045         -0.096         -0.083         -0.194          0.164         -0.298          0.020          0.071          0.038          0.016         -0.056         -0.031         -0.227         -0.340          9.780          9.902         -0.373         -0.399         -0.386         -0.117         -0.571         -0.464         -0.426         -0.646         -1.141         -0.507         -0.430         -0.896         -0.913         -0.009          0.006          0.753         -0.246          0.356          0.933          0.558          0.259          0.157          0.353         -0.323          0.176         -0.018          0.214        -19.003         -0.512         -0.745         -0.120         -0.259          2.672         -3.439          0.625         -2.009         -1.083        -20.096         -2.365         -4.001         -1.164          0.011         -7.197         -0.640         -0.068          0.404         -1.266         -0.265          0.209          0.514          0.873          0.441          0.331          0.490          0.648          0.383          0.206          0.330          0.190          0.237         10.805          0.318          0.156          0.157          0.197          0.212          9.536         -0.108          7.726          7.947          9.363          8.883          0.002          0.142         -0.179         -0.203         10.215        -11.303          9.156         10.114         -0.308         -0.457         -0.361         -0.562         -0.495         -0.449         -0.429         -0.681         -0.890         -0.584         -0.555         -1.209         -1.028         -0.801         -1.487         -3.618         -1.060          0.039         -5.817         -4.165          0.131          0.102         -9.158          0.319          0.530         -0.351          1.248          1.491          0.686          0.366         -0.560          0.104          0.301          0.078         -1.238         -1.366        -20.610         -1.149         -4.171         -3.192         -1.099         -2.160         -7.467         -1.627          0.666          4.566          4.068          0.945          3.195          2.456          0.794          1.099          1.220          0.532          0.607          0.648          0.496          0.530          0.507          0.320          0.380         -0.007        -10.318          0.170         11.550          9.005          0.066          0.078          0.110          8.777         -9.407       -131.099
      12000.000         15.381         -0.093         -0.194         -0.186          0.069          0.408          0.684          0.091          0.187          0.374          0.228          0.054          0.284          0.293          0.241         10.308         -9.940          8.777         -0.089         -0.144          0.371         -0.323         -0.326         -0.568         -0.719         -0.477         -0.603         -0.550         -0.481         -0.375         -0.754         -0.565         -0.548         -0.580         -2.346         -0.336         -0.135          0.206          0.100          0.916          0.442          0.914         -1.763          0.141          1.109          0.969          0.117          0.989          1.209        -25.704          0.312          0.108          0.307          0.388         -0.120          0.089          0.455         -0.566         -1.279         22.027         -0.913         -0.846         -1.957        -23.615         -1.539         -2.074         -3.304         -1.396         -1.059       -110.828         -9.775         -0.395          2.377          0.224          6.657          0.892          2.503          1.452          1.809          0.792          1.001          1.056          0.592          0.663          0.510          0.403        -13.306         13.272          0.320          0.302          0.259          0.273          0.193          0.088         -0.107         -0.099         -0.219          0.121          0.196          0.090          0.092          0.101         -0.047         -0.048          0.018         -0.327         -0.350         10.201         10.225         -0.398         -0.429         -0.504         -0.277         -0.677         -0.627         -0.621         -1.019         -1.212         -0.565         -0.463         -0.890         -0.729          0.044         -0.084          0.937          0.234          0.497          0.762          0.387          0.317         -0.013          0.244         -0.600          0.759          0.254          0.281        -18.104         -0.675         -0.728          0.024         -0.499          3.676         -2.576          0.788         -1.028         -0.909        -18.502         -1.180         -2.051         -0.730         -0.176         -9.576         -2.114         -0.380          0.704         -6.821         -0.651          0.301          0.710          1.113          0.609          0.376          0.572          0.572          0.406          0.327          0.396          0.346          0.267         11.115          0.352          0.198          0.194          0.227          0.256          9.833          0.011          7.786          8.015          9.492          9.168         -0.025          0.061         -0.229         -0.191         10.370        -11.330          9.287         10.346         -0.347         -0.436         -0.384         -0.627         -0.524         -0.503         -0.494         -0.665         -0.881         -0.592         -0.731         -1.146         -1.188         -0.767         -2.235         -3.342         -0.988          0.099         -5.523         -4.393          0.270          0.469         -2.203          0.206          0.606         -0.358          0.795          1.196          0.606          0.127         -0.128          0.048          0.125          0.007         -1.155         -1.242        -19.036         -1.146         -4.639         -2.761         -1.455         -1.615         -7.129         -2.903          0.506          3.528          3.665          0.964          3.440          2.124          0.799          1.011          1.158          0.476          0.541          0.637          0.354          0.456          0.378          0.286         -0.327         -0.003        -10.442          0.171         10.177          9.090          0.037          0.072          0.092          8.758         -9.682       -120.414
      16000.000         14.617          0.010          0.070         -0.091          0.000          0.354          0.414          0.111          0.234          0.413          0.077          0.130          0.218          0.251          0.226          9.603         -9.364          8.154         -0.047         -0.087          0.328         -0.255         -0.258         -0.463         -0.646         -0.356         -0.469         -0.532         -0.495         -0.439         -0.715         -0.511         -0.370         -0.392         -1.971         -0.401          0.039          0.023         -0.230          0.697          0.071          0.531          0.214         -0.288          0.698          0.559         -0.281          1.174          1.500        -27.205          0.408          0.395          0.690          0.504         -0.095         -0.244          0.296         -0.630         -1.187         24.613         -0.907         -0.966         -1.971        -24.960         -1.359         -2.251         -3.308         -0.928         -0.510        -98.412         -6.824          0.130          1.466          0.185         -0.121          0.833          1.858          0.911          1.104          0.499          0.753          0.680          0.457          0.513          0.548          0.346        -12.053         12.190          0.250          0.270          0.198          0.227          0.188          0.001         -0.071         -0.064         -0.131          0.111          0.169          0.141          0.092          0.033          0.001         -0.115         -0.008         -0.282         -0.270          9.324          9.528         -0.330         -0.385         -0.365         -0.217         -0.537         -0.389         -0.469         -0.630         -1.149         -0.540         -0.402         -0.808         -0.871         -0.257         -0.105          0.097          0.166          0.471          1.019          0.318          0.319         -0.085          0.182         -0.638          0.455         -0.180          0.163        -20.556         -0.508         -0.815          0.010          1.124          1.906         -3.362          0.540         -0.852         -1.441        -21.602         -4.104         -4.268         -1.327          0.681        -10.406          1.091          0.257          0.840          0.211          0.164          0.843          0.571          0.814          0.654          0.365          0.446          0.579          0.321          0.317          0.350          0.201          0.242         10.251          0.282          0.144          0.146          0.182          0.185          9.174          0.041          7.304          7.213          8.884          8.670         -0.013          0.071         -0.204         -0.197          9.451        -10.580          8.744          9.359         -0.287         -0.306         -0.387         -0.558         -0.453         -0.370         -0.397         -0.562         -0.660         -0.550         -0.575         -1.132         -0.941         -0.825         -1.324         -3.031         -1.149         -0.148         -3.422         -1.674         -0.278         -0.191         -3.865          0.284          0.643         -0.600          1.387          1.480          0.833          0.631         -0.673          0.123          0.345          0.024         -1.433         -1.317        -20.775         -0.863         -5.158         -2.906         -0.936         -0.991         -4.379         -1.549          0.304          2.550         -0.720          0.468          2.149          1.564          0.631          0.789          1.217          0.423          0.487          0.535          0.391          0.379          0.384          0.278          0.298         -0.032         -9.324          0.205         10.374          8.233          0.074          0.111          0.130          8.197         -9.119       -123.620
      20000.000         14.978          0.016         -0.095         -0.138          0.058          0.374          0.328          0.119          0.200          0.376          0.022          0.085          0.255          0.321          0.261          9.606         -9.508          9.074         -0.007         -0.100          0.355         -0.266         -0.266         -0.439         -0.701         -0.389         -0.450         -0.552         -0.530         -0.698         -0.812         -0.740         -0.560         -0.666         -2.023         -0.359         -0.287         -0.102         -0.362          0.731          0.186          0.398         -0.542         -0.161          1.558          1.402          0.097          0.662          1.258        -23.985          0.470          0.398          0.812          0.130         -0.015         -0.128          0.295         -0.586         -1.318         23.735         -0.733         -0.774         -2.211        -25.106         -1.256         -2.388         -3.301         -1.599         -0.806       -113.977         -8.706          0.142          2.666          1.438          0.999          0.972          1.626          0.985          1.101          0.623          0.838          0.879          0.485          0.492          0.332          0.331        -12.233         12.252          0.331          0.274          0.238          0.255          0.188         -0.036         -0.056         -0.093         -0.159          0.113          0.038          0.050          0.117          0.085         -0.014         -0.059         -0.053         -0.225         -0.310          9.484          9.579         -0.338         -0.314         -0.397         -0.192         -0.496         -0.485         -0.396         -0.616         -1.041         -0.570         -0.497         -0.745         -1.006         -0.163         -0.420         -0.038         -0.004          0.570          1.013          0.415          0.290         -0.269          0.177         -0.579          0.537         -0.287          0.188        -19.213         -0.685         -0.717          0.014          0.352          0.515         -0.902         -0.173         -1.272         -1.152        -19.573         -1.259         -2.450         -0.773          0.329         -7.020          0.313          0.143          0.491         -0.488         -0.101          0.540          0.382          0.772          0.556          0.284          0.383          0.344          0.373          0.219          0.326          0.228          0.230         10.472          0.301          0.213          0.154          0.200          0.225          9.265          0.033          8.538          7.303          8.983          8.788         -0.017          0.089         -0.203         -0.197          9.724        -10.704          8.940          9.488         -0.289         -0.362         -0.367         -0.515         -0.448         -0.408         -0.444         -0.603         -0.744         -0.638         -0.775         -1.358         -0.989         -0.888         -0.690         -3.107         -0.934         -0.050         -7.520         -4.525          0.251          0.073        -10.977         -0.150          0.651         -0.425          1.506          1.445          0.808          0.181         -0.507          0.167          0.198          0.232         -1.451         -1.404        -20.572         -1.226         -3.810         -3.054         -1.283         -1.700         -7.869         -1.444          0.458          3.525         -2.048          0.964          2.561          1.896          0.814          0.918          1.328          0.433          0.490          0.571          0.439          0.465          0.448          0.300          0.279         -0.020         -9.484          0.186         10.246          8.290          0.074          0.080          0.129          8.770         -9.381       -141.740
      24000.000         15.874          0.075         -0.018         -0.198         -0.051          0.404          0.560          0.169          0.192          0.428          0.127          0.052          0.285          0.303          0.247         10.133         -9.887          8.534         -0.039         -0.083          0.346         -0.336         -0.291         -0.481         -0.714         -0.413         -0.537         -0.584         -0.493         -0.509         -0.864         -0.614         -0.509         -0.590         -2.330         -0.439          0.126          0.134         -0.149          0.741          0.326          0.717          0.521          0.146          1.560          1.227          0.229          0.569          1.157        -24.528          0.363          0.172          0.754          0.157          0.023          0.237          0.316         -0.558         -1.209         23.260         -0.964         -0.661         -1.947        -24.793         -1.535         -2.630         -3.786         -1.950         -0.902       -115.237        -11.358         -0.631          2.924          2.638          0.590          1.246          2.941          1.459          1.216          0.700          1.005          0.760          0.556          0.580          0.415          0.396        -12.713         12.892          0.296          0.310          0.249          0.278          0.212          0.088         -0.099         -0.070         -0.167          0.088         -0.062          0.124          0.110          0.032         -0.010         -0.035         -0.055         -0.233         -0.356          9.710          9.948         -0.388         -0.389         -0.475         -0.222         -0.618         -0.459         -0.486         -0.773         -1.086         -0.529         -0.621         -0.998         -0.682         -0.053         -0.253          0.567          0.144          0.653          1.144          0.508          0.520          0.173          0.369         -0.780          0.283         -0.041          0.077        -19.246         -0.273         -0.583         -0.129         -0.221          0.607         -0.496         -0.484         -1.036         -1.195        -19.897         -2.700         -3.308         -0.852          0.589         -7.215          0.119         -0.054          0.455         -1.560         -0.089          0.161          0.410          0.903          0.487          0.381          0.485          0.469          0.381          0.226          0.340          0.255          0.240         10.814          0.327          0.235          0.186          0.209          0.226          9.797          0.040          7.533          7.413          9.314          8.968         -0.005          0.080         -0.229         -0.218         10.047        -11.234          9.360         10.241         -0.290         -0.359         -0.427         -0.634         -0.520         -0.412         -0.411         -0.737         -0.923         -0.650         -0.874         -1.091         -1.325         -0.710         -0.657         -4.686         -1.130         -0.011         -6.912         -4.171         -0.099          0.259         -4.360          0.313          0.625          2.943          1.340          1.394          0.743          0.329         -0.479         -0.162          0.076          0.227         -1.388         -1.234        -18.765         -0.866         -4.368         -2.640         -1.284         -2.400         -5.730         -2.629         -0.024          3.427         -3.936          0.796          3.293          1.798          0.866          0.925          1.348          0.495          0.607          0.633          0.439          0.464          0.471          0.354          0.259          0.039         -9.701          0.251         10.903          8.940          0.079          0.127          0.114          8.693         -9.601       -131.544