# Time	LEU-41	ALA-42	ILE-43	VAL-44	PHE-45	GLY-46	ASN-47	GLY-48	LEU-49	VAL-50	CYS-51	MET-52	ALA-53	VAL-54	LEU-55	LYS-56	GLU-57	ARG-58	ALA-59	LEU-60	GLN-61	THR-62	THR-63	THR-64	ASN-65	TYR-66	LEU-67	VAL-68	VAL-69	SER-70	LEU-71	ALA-72	VAL-73	ALA-74	ASH-75	LEU-76	LEU-77	VAL-78	ALA-79	THR-80	LEU-81	VAL-82	MET-83	PRO-84	TRP-85	VAL-86	VAL-87	TYR-88	LEU-89	GLU-90	VAL-91	THR-92	GLY-93	GLY-94	VAL-95	TRP-96	ASN-97	PHE-98	SER-99	ARG-100	ILE-101	CYS-102	CYX-103	ASP-104	VAL-105	PHE-106	VAL-107	THR-108	LEU-109	ASP-110	VAL-111	MET-112	MET-113	CYS-114	THR-115	ALA-116	SER-117	ILE-118	TRP-119	ASN-120	LEU-121	CYS-122	ALA-123	ILE-124	SER-125	ILE-126	ASP-127	ARG-128	TYR-129	THR-130	ALA-131	VAL-132	VAL-133	MET-134	PRO-135	VAL-136	HID-137	TYR-138	GLN-139	HID-140	GLY-141	THR-142	GLY-143	GLN-144	SER-145	SER-146	CYS-147	ARG-148	ARG-149	VAL-150	ALA-151	LEU-152	MET-153	ILE-154	THR-155	ALA-156	VAL-157	TRP-158	VAL-159	LEU-160	ALA-161	PHE-162	ALA-163	VAL-164	SER-165	CYS-166	PRO-167	LEU-168	LEU-169	PHE-170	GLY-171	PHE-172	ASN-173	THR-174	THR-175	GLY-176	ASP-177	PRO-178	THR-179	VAL-180	CYX-181	SER-182	ILE-183	SER-184	ASN-185	PRO-186	ASP-187	PHE-188	VAL-189	ILE-190	TYR-191	SER-192	SER-193	VAL-194	VAL-195	SER-196	PHE-197	TYR-198	LEU-199	PRO-200	PHE-201	GLY-202	VAL-203	THR-204	VAL-205	LEU-206	VAL-207	TYR-208	ALA-209	ARG-210	ILE-211	TYR-212	VAL-213	VAL-214	LEU-215	LYS-216	GLN-217	ARG-218	ARG-219	ARG-220	LYS-221	GLY-319	VAL-320	PRO-321	LEU-322	ARG-323	GLU-324	LYS-325	LYS-326	ALA-327	THR-328	GLN-329	MET-330	VAL-331	ALA-332	ILE-333	VAL-334	LEU-335	GLY-336	ALA-337	PHE-338	ILE-339	VAL-340	CYS-341	TRP-342	LEU-343	PRO-344	PHE-345	PHE-346	LEU-347	THR-348	HIE-349	VAL-350	LEU-351	ASN-352	THR-353	HID-354	CYX-355	GLN-356	THR-357	CYX-358	HID-359	VAL-360	SER-361	PRO-362	GLU-363	LEU-364	TYR-365	SER-366	ALA-367	THR-368	THR-369	TRP-370	LEU-371	GLY-372	TYR-373	VAL-374	ASN-375	SER-376	ALA-377	LEU-378	ASN-379	PRO-380	VAL-381	ILE-382	TYR-383	THR-384	THR-385	PHE-386	ASN-387	ILE-388	GLU-389	PHE-390	ARG-391	LYS-392	ALA-393	PHE-394	LEU-395	LYS-396	ILE-397	DPN-14602	
          0.000         -1.619          0.002          0.008          0.102         -0.001         -0.125         -0.225         -0.074         -0.061         -0.134         -0.042         -0.051         -0.075         -0.076         -0.024         -0.291          0.507         -0.236          0.009          0.033         -0.073          0.075          0.040          0.084          0.183          0.097          0.115          0.123          0.164          0.220          0.176          0.163          0.154          0.247          0.295          0.201          0.126          0.166          0.166          0.012         -0.061         -0.281          0.031          0.008         -0.363         -0.520         -0.182         -0.189         -0.392          4.028         -0.150         -0.225         -0.119          0.035          0.021          0.056          0.080          0.209          0.268         -2.555          0.230          0.372          0.420          3.848          0.350          0.740          0.885          0.108         -0.180         38.428          0.913         -0.227         -0.471         -0.472         -0.310         -0.210         -0.471         -0.311         -0.269         -0.356         -0.192         -0.168         -0.119         -0.123         -0.128         -0.098          1.040         -1.064         -0.052         -0.075         -0.047         -0.034         -0.029         -0.014          0.013          0.011         -0.021         -0.022          0.059         -0.021         -0.014          0.016         -0.010         -0.002          0.005          0.070          0.080         -0.151         -0.552          0.095          0.143          0.140          0.138          0.176          0.124          0.168          0.135          0.261          0.161          0.071          0.153          0.164          0.028         -0.056         -0.098         -0.047         -0.200         -0.262         -0.140         -0.079         -0.133         -0.094         -0.007         -0.026          0.023         -0.028          1.046         -0.085         -0.140          0.084          0.106         -0.276          0.020         -0.061          0.329          0.205          2.225          0.761          0.512          0.259         -0.092          2.524          0.680          0.003         -0.097          1.008         -0.132         -0.195         -0.145         -0.237         -0.151         -0.105         -0.140         -0.141         -0.108         -0.082         -0.100         -0.074         -0.057         -0.433         -0.065         -0.022         -0.024         -0.035         -0.027         -0.141          0.010         -0.091         -0.080         -0.271         -0.149          0.005         -0.019          0.033          0.035         -0.496          0.723         -0.194         -0.416          0.070          0.091          0.057          0.112          0.112          0.120          0.144          0.158          0.188          0.164          0.206          0.232          0.250          0.191         -0.001          0.587          0.073         -0.046          0.774          0.401         -0.102         -0.288          1.519         -0.176         -0.158         -0.298         -0.155          0.130         -0.036         -0.043          0.005         -0.015         -0.141         -0.180          0.295          0.363          1.972          0.330          0.550          0.852          0.472          0.228          1.317          0.689         -0.076         -0.540         -2.149         -0.259         -0.441         -0.234         -0.221         -0.231         -0.185         -0.159         -0.139         -0.150         -0.117         -0.106         -0.115         -0.062         -0.027          0.018          0.680         -0.015         -0.693         -0.619          0.018          0.021         -0.038         -0.379          0.208        137.383
       4000.000         -1.371          0.010          0.027          0.088          0.055         -0.082         -0.216         -0.069         -0.063         -0.101         -0.035         -0.025         -0.067         -0.067         -0.019         -0.330          0.473         -0.137          0.003          0.040         -0.059          0.057          0.036          0.077          0.149          0.103          0.113          0.140          0.123          0.177          0.149          0.160          0.157          0.234          0.249          0.158          0.128          0.191          0.250          0.083         -0.010         -0.188          0.344         -0.038         -0.375         -0.498         -0.167         -0.189         -0.285          3.038         -0.134         -0.171         -0.040         -0.015          0.023         -0.064         -0.093          0.132          0.274         -2.764          0.281          0.283          0.432          3.954          0.351          0.685          0.706          0.189         -0.206         47.010          0.857         -0.287         -0.582         -0.818         -0.391         -0.216         -0.419         -0.225         -0.228         -0.321         -0.158         -0.168         -0.104         -0.099         -0.117         -0.094          0.944         -0.993         -0.052         -0.061         -0.048         -0.030         -0.024         -0.000          0.010          0.011         -0.016         -0.035         -0.007         -0.017          0.011          0.016         -0.001         -0.002          0.009          0.060          0.057         -0.107         -0.476          0.091          0.136          0.134          0.179          0.169          0.136          0.179          0.142          0.260          0.190          0.106          0.158          0.186          0.096         -0.029         -0.104         -0.129         -0.170         -0.196         -0.021         -0.083         -0.161         -0.124         -0.125          0.023          0.075          0.002          1.057         -0.104         -0.125          0.138          0.324         -0.264         -0.147         -0.024          0.368          0.164          2.159          0.630          0.468          0.163         -0.051          2.484          0.255         -0.074         -0.111          0.924         -0.125         -0.200         -0.115         -0.190         -0.142         -0.136         -0.131         -0.123         -0.104         -0.061         -0.093         -0.084         -0.061         -0.421         -0.059         -0.022         -0.028         -0.031         -0.031         -0.143          0.028         -0.028         -0.059         -0.270         -0.132         -0.012         -0.018          0.030          0.038         -0.359          0.743         -0.247         -0.582          0.061          0.089          0.063          0.057          0.096          0.113          0.133          0.109          0.128          0.146          0.143          0.109          0.155          0.124          0.061          0.503          0.057         -0.052          0.743          0.277         -0.086         -0.222          2.201         -0.172         -0.136         -0.163         -0.165          0.105         -0.029         -0.020          0.019          0.019         -0.072         -0.109          0.254          0.254          1.712          0.297          0.218          0.637          0.414         -0.018          0.939          0.645          0.027         -0.231         -2.450         -0.222         -0.290         -0.321         -0.183         -0.176         -0.107         -0.138         -0.122         -0.130         -0.107         -0.027         -0.097         -0.049         -0.033          0.010          0.502          0.020         -0.633         -0.532          0.042         -0.013         -0.024         -0.087          0.107        127.993
       8000.000         -1.321          0.020          0.071          0.107          0.015         -0.122         -0.185         -0.068         -0.061         -0.086         -0.027         -0.071         -0.070         -0.068         -0.025         -0.476          0.444         -0.133          0.015          0.034         -0.060          0.063          0.029          0.072          0.152          0.105          0.124          0.125          0.127          0.179          0.162          0.188          0.185          0.269          0.259          0.182          0.081          0.205          0.187          0.116         -0.119         -0.290         -0.084         -0.011         -0.510         -0.557         -0.216         -0.208         -0.264          2.715         -0.110         -0.194         -0.097         -0.035          0.065          0.004         -0.140          0.151          0.283         -2.556          0.258          0.304          0.394          3.906          0.457          1.149          1.156          0.153         -0.129         41.521          0.726         -0.262         -0.866         -0.650         -0.071         -0.210         -0.463         -0.276         -0.285         -0.390         -0.171         -0.198         -0.111         -0.122         -0.126         -0.090          0.944         -0.982         -0.050         -0.064         -0.052         -0.037         -0.027          0.004          0.012          0.009         -0.014         -0.025          0.021          0.002         -0.008          0.024          0.010         -0.005          0.001          0.061          0.068         -0.121         -0.551          0.087          0.136          0.133          0.167          0.185          0.162          0.183          0.159          0.304          0.212          0.099          0.115          0.247          0.083          0.064         -0.059         -0.130         -0.251         -0.263         -0.189         -0.118         -0.191         -0.100         -0.130         -0.014          0.053          0.001          1.320         -0.057         -0.088          0.097          0.195         -0.260         -0.130          0.171          0.340          0.180          2.241          0.837          0.791          0.223         -0.158          2.348          0.799         -0.025         -0.141          0.978         -0.111         -0.195         -0.172         -0.222         -0.168         -0.147         -0.134         -0.109         -0.078         -0.063         -0.095         -0.074         -0.060         -0.396         -0.067         -0.028         -0.026         -0.036         -0.030         -0.130          0.004         -0.041         -0.059         -0.300         -0.133         -0.010         -0.003          0.034          0.038         -0.075          0.599         -0.219         -0.331          0.064          0.091          0.111          0.063          0.108          0.119          0.134          0.135          0.172          0.135          0.135          0.148          0.184          0.145          0.058          0.544          0.068         -0.051          0.523          0.422         -0.076         -0.297          2.124         -0.167         -0.134         -0.084         -0.165          0.082         -0.053          0.038         -0.006         -0.013         -0.094         -0.114          0.219          0.243          1.565          0.234          0.457          0.665          0.311          0.214          0.925          0.561          0.010         -0.131         -1.975         -0.201         -0.272         -0.314         -0.172         -0.190         -0.182         -0.138         -0.142         -0.136         -0.146         -0.103         -0.105         -0.067         -0.068          0.016          0.443         -0.009         -0.658         -0.485          0.012          0.004         -0.013         -0.164          0.200        130.700
      12000.000         -1.378          0.005          0.025          0.088          0.022         -0.109         -0.196         -0.057         -0.057         -0.075         -0.043         -0.083         -0.071         -0.066         -0.027         -0.493          0.493         -0.236          0.009          0.030         -0.073          0.048          0.037          0.047          0.140          0.096          0.100          0.117          0.129          0.223          0.127          0.151          0.173          0.231          0.217          0.220          0.234          0.360          0.216          0.122          0.155         -0.129          0.308         -0.039         -0.576         -0.549         -0.167         -0.270         -0.362          3.625         -0.125         -0.238         -0.116          0.054          0.039         -0.107         -0.179          0.129          0.308         -2.829          0.237          0.277          0.432          4.078          0.367          0.715          0.647          0.119         -0.240         41.253          0.542         -0.303         -0.460         -0.426         -0.356         -0.181         -0.294         -0.204         -0.214         -0.303         -0.144         -0.161         -0.112         -0.108         -0.102         -0.083          0.992         -0.931         -0.045         -0.074         -0.046         -0.028         -0.029          0.000          0.007          0.008         -0.022         -0.025          0.023         -0.014          0.001          0.023          0.006         -0.001          0.012          0.067          0.072         -0.119         -0.612          0.080          0.133          0.142          0.168          0.164          0.151          0.160          0.137          0.251          0.191          0.108          0.169          0.130          0.096          0.047         -0.070         -0.037         -0.205         -0.191         -0.126         -0.104         -0.147         -0.092         -0.037         -0.018         -0.011         -0.014          1.350         -0.077          0.010          0.092          0.239         -0.262          0.018          0.057          0.083          0.101          2.013          0.433          0.369          0.070         -0.124          2.309          0.457         -0.005         -0.077          1.017         -0.088         -0.101         -0.134         -0.193         -0.162         -0.119         -0.123         -0.127         -0.079         -0.056         -0.090         -0.075         -0.049         -0.380         -0.059         -0.017         -0.021         -0.030         -0.024         -0.138          0.003         -0.033         -0.072         -0.278         -0.124         -0.003         -0.011          0.030          0.036         -0.086          0.607         -0.269         -0.284          0.062          0.069          0.104          0.087          0.107          0.112          0.115          0.119          0.133          0.128          0.166          0.155          0.200          0.170          0.185          0.540          0.080         -0.001          0.962          0.312         -0.121         -0.334          2.136         -0.133         -0.123         -0.151         -0.137          0.027         -0.043         -0.029          0.022         -0.033         -0.116         -0.076          0.226          0.290          1.878          0.318          0.456          0.819          0.480          0.305          1.385          0.661         -0.071         -0.535         -2.449         -0.271         -0.301         -0.257         -0.226         -0.148         -0.095         -0.118         -0.123         -0.138         -0.087         -0.076         -0.076         -0.058         -0.043          0.013          0.497         -0.008         -0.635         -0.315          0.016         -0.003         -0.033         -0.056          0.169        135.442
      16000.000         -1.195         -0.008          0.019          0.078          0.013         -0.105         -0.205         -0.059         -0.061         -0.104         -0.032         -0.054         -0.057         -0.059         -0.014         -0.291          0.492         -0.238          0.004          0.028         -0.053          0.059          0.053          0.107          0.120          0.091          0.100          0.124          0.144          0.178          0.139          0.157          0.152          0.226          0.257          0.148          0.159          0.218          0.278          0.005          0.028         -0.083         -0.053         -0.032         -0.578         -0.558         -0.191         -0.246         -0.297          3.516         -0.145         -0.196         -0.139          0.005          0.012         -0.059         -0.088          0.098          0.267         -2.375          0.195          0.252          0.367          3.384          0.320          0.657          0.794          0.119         -0.124         37.525          0.912         -0.240         -0.740         -0.152         -0.099         -0.160         -0.402         -0.278         -0.242         -0.334         -0.150         -0.149         -0.107         -0.102         -0.117         -0.090          0.958         -1.033         -0.050         -0.071         -0.049         -0.030         -0.028         -0.003          0.007          0.007         -0.021         -0.029          0.043         -0.013         -0.008          0.012         -0.004          0.003          0.013          0.061          0.079         -0.128         -0.618          0.094          0.127          0.128          0.176          0.167          0.135          0.171          0.141          0.198          0.158          0.099          0.168          0.111          0.052         -0.073         -0.136         -0.052         -0.188         -0.258         -0.136         -0.090         -0.120         -0.062         -0.155         -0.018          0.034          0.028          1.134         -0.073         -0.044          0.064          0.112         -0.175         -0.063          0.036          0.256          0.164          2.206          0.593          0.510          0.219         -0.051          2.304          0.640         -0.013         -0.078          1.533         -0.172         -0.205         -0.119         -0.231         -0.200         -0.149         -0.150         -0.134         -0.098         -0.064         -0.099         -0.058         -0.061         -0.370         -0.067         -0.018         -0.022         -0.027         -0.024         -0.149          0.008         -0.037         -0.073         -0.260         -0.147         -0.006         -0.006          0.040          0.037         -0.451          0.770         -0.289         -0.251          0.064          0.109          0.062          0.052          0.093          0.121          0.137          0.138          0.133          0.151          0.197          0.189          0.209          0.204          0.202          0.679          0.108         -0.006          1.254          0.408         -0.098         -0.345          1.770         -0.196         -0.164         -0.335         -0.215          0.128         -0.072         -0.003          0.001         -0.056         -0.132         -0.186          0.338          0.350          2.131          0.377          0.632          0.947          0.407          0.202          1.075          0.580         -0.115         -0.292         -2.683         -0.197         -0.265         -0.241         -0.225         -0.209         -0.152         -0.118         -0.132         -0.144         -0.096         -0.095         -0.101         -0.064         -0.066          0.012          0.527         -0.016         -0.574         -0.468          0.015         -0.003         -0.010         -0.161          0.398        131.434
      20000.000         -1.398         -0.010          0.007          0.093          0.024         -0.104         -0.192         -0.048         -0.054         -0.083         -0.014         -0.035         -0.061         -0.060         -0.022         -0.445          0.516         -0.212          0.004          0.020         -0.067          0.058          0.045          0.064          0.127          0.100          0.097          0.118          0.110          0.158          0.120          0.123          0.161          0.216          0.255          0.189          0.202          0.279          0.125          0.101          0.203          0.155          0.313         -0.032         -0.625         -0.700         -0.206         -0.228         -0.367          2.872         -0.134         -0.188         -0.031          0.125          0.055         -0.038         -0.110          0.124          0.282         -2.597          0.245          0.286          0.378          3.864          0.361          0.627          0.711          0.151         -0.053         38.755          0.725         -0.395         -0.660         -0.327         -0.346         -0.164         -0.318         -0.192         -0.178         -0.264         -0.129         -0.150         -0.093         -0.100         -0.099         -0.079          0.869         -0.914         -0.038         -0.067         -0.047         -0.030         -0.026         -0.002          0.012          0.007         -0.018         -0.021          0.028         -0.008          0.016          0.032          0.006          0.008          0.004          0.059          0.061         -0.134         -0.490          0.079          0.107          0.114          0.162          0.156          0.164          0.163          0.107          0.190          0.166          0.089          0.183          0.122          0.104          0.149         -0.051         -0.063         -0.195         -0.264         -0.113         -0.135         -0.187         -0.123         -0.083          0.002          0.066         -0.063          1.321         -0.079          0.070          0.087          0.137         -0.212         -0.012          0.043          0.302          0.209          2.148          0.908          0.552          0.203         -0.202          2.047          0.228         -0.053         -0.138          0.949         -0.110         -0.154         -0.108         -0.183         -0.169         -0.126         -0.115         -0.111         -0.075         -0.059         -0.087         -0.052         -0.051         -0.347         -0.057         -0.017         -0.018         -0.034         -0.030         -0.128          0.008         -0.037         -0.063         -0.239         -0.131         -0.005         -0.010          0.037          0.032         -0.349          0.681         -0.279         -0.342          0.057          0.092          0.111          0.048          0.102          0.126          0.138          0.135          0.145          0.139          0.152          0.160          0.202          0.169          0.129          0.605          0.088         -0.040          1.105          0.465         -0.084         -0.293          1.620         -0.127         -0.151         -0.366         -0.167          0.181         -0.036          0.009          0.024         -0.040         -0.111         -0.129          0.290          0.300          1.916          0.299          0.706          0.717          0.375          0.265          1.429          0.789         -0.097         -0.570         -1.199         -0.281         -0.351         -0.251         -0.211         -0.190         -0.066         -0.125         -0.133         -0.128         -0.080         -0.098         -0.109         -0.047         -0.053          0.013          0.505         -0.015         -0.602         -0.459          0.014         -0.001         -0.005         -0.123          0.375        134.940
      24000.000         -1.287          0.013          0.025          0.102          0.021         -0.109         -0.201         -0.060         -0.042         -0.091         -0.014         -0.047         -0.059         -0.062         -0.019         -0.267          0.431         -0.185          0.004          0.029         -0.055          0.036          0.028          0.070          0.125          0.088          0.104          0.124          0.128          0.156          0.139          0.145          0.180          0.253          0.159          0.160          0.145          0.260          0.175          0.227          0.110         -0.316          0.050         -0.016         -0.485         -0.640         -0.211         -0.230         -0.320          2.795         -0.125         -0.130         -0.101         -0.071          0.047         -0.015         -0.110          0.151          0.278         -2.444          0.240          0.247          0.431          3.632          0.491          1.028          1.130          0.192         -0.127         44.101          0.479         -0.251         -0.739          0.044          0.053         -0.203         -0.283         -0.299         -0.273         -0.338         -0.150         -0.159         -0.107         -0.106         -0.124         -0.096          0.901         -0.898         -0.043         -0.060         -0.046         -0.035         -0.022         -0.011          0.017          0.008         -0.001         -0.022          0.018          0.001         -0.009         -0.006         -0.003         -0.009         -0.002          0.053          0.043         -0.107         -0.379          0.085          0.126          0.118          0.127          0.163          0.127          0.188          0.171          0.251          0.130          0.083          0.174          0.210          0.056         -0.135         -0.147         -0.039         -0.158         -0.186         -0.119         -0.135         -0.153         -0.103          0.020         -0.039          0.052          0.036          0.850         -0.063          0.033          0.133          0.060         -0.134          0.010         -0.044          0.216          0.150          1.890          0.532          0.494          0.146         -0.122          2.953          0.461          0.006         -0.073          1.449         -0.051         -0.147         -0.107         -0.200         -0.157         -0.121         -0.121         -0.112         -0.074         -0.063         -0.090         -0.059         -0.053         -0.359         -0.060         -0.027         -0.024         -0.033         -0.033         -0.113          0.002         -0.035         -0.051         -0.209         -0.109          0.002         -0.012          0.028          0.036         -0.185          0.627         -0.218         -0.282          0.050          0.084          0.087          0.095          0.089          0.076          0.119          0.108          0.152          0.140          0.144          0.118          0.177          0.141          0.048          0.703          0.106         -0.016          0.690          0.465         -0.043         -0.256          2.646         -0.107         -0.115         -0.474         -0.182          0.094         -0.040          0.036         -0.044         -0.045         -0.086         -0.086          0.242          0.289          1.809          0.259          0.481          0.466          0.418          0.059          1.150          0.591         -0.020         -0.315         -1.073         -0.189         -0.217         -0.238         -0.174         -0.175         -0.189         -0.113         -0.110         -0.118         -0.105         -0.094         -0.084         -0.060          0.007          0.009          0.430         -0.014         -0.504         -0.379          0.025          0.003         -0.001         -0.114          0.470        128.009