# Time	LEU-41	ALA-42	ILE-43	VAL-44	PHE-45	GLY-46	ASN-47	GLY-48	LEU-49	VAL-50	CYS-51	MET-52	ALA-53	VAL-54	LEU-55	LYS-56	GLU-57	ARG-58	ALA-59	LEU-60	GLN-61	THR-62	THR-63	THR-64	ASN-65	TYR-66	LEU-67	VAL-68	VAL-69	SER-70	LEU-71	ALA-72	VAL-73	ALA-74	ASH-75	LEU-76	LEU-77	VAL-78	ALA-79	THR-80	LEU-81	VAL-82	MET-83	PRO-84	TRP-85	VAL-86	VAL-87	TYR-88	LEU-89	GLU-90	VAL-91	THR-92	GLY-93	GLY-94	VAL-95	TRP-96	ASN-97	PHE-98	SER-99	ARG-100	ILE-101	CYS-102	CYX-103	ASP-104	VAL-105	PHE-106	VAL-107	THR-108	LEU-109	ASP-110	VAL-111	MET-112	MET-113	CYS-114	THR-115	ALA-116	SER-117	ILE-118	TRP-119	ASN-120	LEU-121	CYS-122	ALA-123	ILE-124	SER-125	ILE-126	ASP-127	ARG-128	TYR-129	THR-130	ALA-131	VAL-132	VAL-133	MET-134	PRO-135	VAL-136	HID-137	TYR-138	GLN-139	HID-140	GLY-141	THR-142	GLY-143	GLN-144	SER-145	SER-146	CYS-147	ARG-148	ARG-149	VAL-150	ALA-151	LEU-152	MET-153	ILE-154	THR-155	ALA-156	VAL-157	TRP-158	VAL-159	LEU-160	ALA-161	PHE-162	ALA-163	VAL-164	SER-165	CYS-166	PRO-167	LEU-168	LEU-169	PHE-170	GLY-171	PHE-172	ASN-173	THR-174	THR-175	GLY-176	ASP-177	PRO-178	THR-179	VAL-180	CYX-181	SER-182	ILE-183	SER-184	ASN-185	PRO-186	ASP-187	PHE-188	VAL-189	ILE-190	TYR-191	SER-192	SER-193	VAL-194	VAL-195	SER-196	PHE-197	TYR-198	LEU-199	PRO-200	PHE-201	GLY-202	VAL-203	THR-204	VAL-205	LEU-206	VAL-207	TYR-208	ALA-209	ARG-210	ILE-211	TYR-212	VAL-213	VAL-214	LEU-215	LYS-216	GLN-217	ARG-218	ARG-219	ARG-220	LYS-221	GLY-319	VAL-320	PRO-321	LEU-322	ARG-323	GLU-324	LYS-325	LYS-326	ALA-327	THR-328	GLN-329	MET-330	VAL-331	ALA-332	ILE-333	VAL-334	LEU-335	GLY-336	ALA-337	PHE-338	ILE-339	VAL-340	CYS-341	TRP-342	LEU-343	PRO-344	PHE-345	PHE-346	LEU-347	THR-348	HIE-349	VAL-350	LEU-351	ASN-352	THR-353	HID-354	CYX-355	GLN-356	THR-357	CYX-358	HID-359	VAL-360	SER-361	PRO-362	GLU-363	LEU-364	TYR-365	SER-366	ALA-367	THR-368	THR-369	TRP-370	LEU-371	GLY-372	TYR-373	VAL-374	ASN-375	SER-376	ALA-377	LEU-378	ASN-379	PRO-380	VAL-381	ILE-382	TYR-383	THR-384	THR-385	PHE-386	ASN-387	ILE-388	GLU-389	PHE-390	ARG-391	LYS-392	ALA-393	PHE-394	LEU-395	LYS-396	ILE-397	DPN-14602	
          0.000         16.423          0.078          0.040         -0.234          0.154          0.510          0.787          0.184          0.260          0.505          0.144          0.151          0.304          0.323          0.200          9.746         -9.818          9.227         -0.036         -0.122          0.320         -0.346         -0.178         -0.417         -0.795         -0.354         -0.511         -0.567         -0.622         -0.704         -0.941         -0.740         -0.563         -0.944         -0.774         -0.750         -0.115          0.441         -0.065          0.476          0.636          1.025         -0.132         -0.229          0.859          1.100          0.080          0.493          1.404        -28.325          0.446          1.167          0.814         -0.883          0.345         -0.308         -0.444         -0.870         -1.260         22.023         -0.944         -1.151         -2.235        -26.962         -1.306         -2.303         -3.673         -1.423         -0.388       -116.260         -6.271          0.143          1.185          1.122          0.550          1.062          2.229          1.364          1.269          1.879          0.958          0.698          0.537          0.569          0.563          0.389        -12.220         12.457          0.339          0.280          0.246          0.220          0.209          0.026         -0.096         -0.054          0.129          0.056         -0.285          0.128          0.095         -0.127          0.003         -0.027          0.013         -0.315         -0.331          9.535         11.098         -0.353         -0.434         -0.413         -0.406         -0.544         -0.386         -0.378         -0.522         -0.949         -0.502         -0.336         -0.738         -0.803         -0.038         -0.180          0.321         -0.162          0.588          1.178          0.467          0.474          0.677          0.552         -0.501         -0.021         -0.308          0.504        -18.982          0.607         -0.648          0.591          1.886          1.411         -0.820          0.057         -1.676         -1.252        -18.958         -1.600         -2.522         -1.076          0.309         -5.040         -2.442         -0.367          0.133         -2.920         -0.140          0.776          0.444          0.817          0.478          0.255          0.498          0.701          0.377          0.333          0.389          0.253          0.228         10.375          0.317          0.214          0.169          0.225          0.142          9.182          0.011          7.668          7.716          9.031          8.395         -0.016          0.089         -0.200         -0.190          9.759        -10.883          9.346         10.024         -0.309         -0.398         -0.066         -0.562         -0.490         -0.418         -0.455         -0.724         -0.934         -0.625         -0.808         -1.273         -1.185         -0.502          0.468         -3.869         -0.835          0.114         -4.801         -3.651         -0.064          1.697         -0.411          0.156          0.596          2.534         -0.135         -0.904          0.236          0.057          0.153         -0.040          0.604          0.513         -1.377         -1.390        -20.337         -1.199         -2.496         -3.350         -1.123         -2.189         -6.414         -2.246          0.412          4.033          2.588          1.127          1.117          1.469          0.762          0.922          1.778          0.590          0.567          0.584          0.463          0.394          0.471          0.325          0.113         -0.105        -10.639         -0.001         11.313         10.828          0.003         -0.098          0.149         11.552        -11.720       -117.594
       4000.000         16.886          0.078          0.022         -0.188         -0.011          0.348          0.743          0.203          0.294          0.432          0.138          0.120          0.303          0.313          0.181          9.498         -9.605          8.544         -0.030         -0.186          0.342         -0.252         -0.124         -0.387         -0.676         -0.392         -0.565         -0.681         -0.487         -0.586         -0.822         -0.713         -0.495         -0.833         -0.528         -0.728         -0.016          0.518         -0.312          0.278          0.365          0.769         -2.117         -0.020          0.563          0.574         -0.184          0.382          1.618        -26.989          0.399          1.164          0.761         -1.173          0.220         -0.052          0.147         -0.684         -1.315         22.660         -1.097         -0.611         -2.379        -27.483         -1.413         -1.499         -2.807         -1.561         -0.445       -117.899         -9.309          0.342          1.507          3.098          1.021          1.012          2.180          1.150          1.326          1.919          0.931          0.834          0.524          0.512          0.536          0.390        -11.965         12.254          0.214          0.230          0.240          0.218          0.201         -0.118         -0.072         -0.071          0.150          0.093         -0.012          0.135         -0.025         -0.141         -0.068         -0.143         -0.016         -0.322         -0.393          9.333         11.106         -0.341         -0.421         -0.380         -0.492         -0.522         -0.417         -0.407         -0.570         -0.875         -0.610         -0.453         -0.800         -0.845         -0.384         -0.293          0.442          0.147          0.620          1.048         -0.004          0.246          0.804          0.475          0.711         -0.146         -0.399          0.344        -18.503          0.841         -0.611          0.640          1.720          1.462         -1.664          0.412         -1.645         -1.125        -19.097         -1.429         -2.936         -0.911          0.163         -4.927         -2.643          0.061          0.360         -2.748         -0.052          0.711          0.467          0.875          0.491          0.359          0.486          0.590          0.390          0.283          0.378          0.313          0.253         10.365          0.279          0.234          0.176          0.205          0.170          9.330         -0.202          7.019          7.254          9.080          8.707          0.078          0.088         -0.196         -0.194          9.236        -11.018          8.846         10.285         -0.324         -0.427         -0.091         -0.277         -0.476         -0.442         -0.465         -0.553         -0.683         -0.572         -0.598         -1.120         -0.894         -0.360          0.199         -2.372         -0.845          0.268         -5.026         -4.679         -0.180          1.595         -2.896          0.259          0.594          2.367          0.201         -0.586          0.102          0.142         -0.003         -0.124          0.340          0.116         -1.381         -1.279        -20.045         -1.178         -1.333         -1.439         -1.372         -1.476         -4.701         -2.149          0.278          3.626          2.131          0.960          1.581          2.066          0.906          0.975          1.395          0.555          0.539          0.569          0.527          0.104          0.418          0.264          0.117         -0.113         -9.863         -0.132         11.387          9.775         -0.140          0.002          0.082          8.925        -10.313       -119.039
       8000.000         16.497         -0.016         -0.050         -0.259          0.048          0.490          0.674          0.218          0.284          0.403          0.101          0.277          0.307          0.317          0.221         10.489         -9.565          8.534         -0.067         -0.146          0.362         -0.302         -0.093         -0.353         -0.596         -0.395         -0.553         -0.596         -0.533         -0.544         -0.762         -0.779         -0.496         -0.808         -0.294         -0.531          0.095          0.088         -0.219          0.007          0.304          0.624          0.191         -0.072          0.761          0.966         -0.030          0.345          1.323        -27.443          0.323          1.206          0.686         -0.627          0.027         -0.433          0.430         -0.652         -1.308         21.643         -1.146         -0.696         -2.418        -27.807         -1.572         -2.665         -3.700         -1.363         -0.025       -104.369         -6.907         -0.045          2.326          0.426          0.388          0.907          1.943          1.123          1.459          1.862          0.825          0.769          0.505          0.584          0.545          0.356        -11.975         12.168          0.319          0.248          0.243          0.211          0.208         -0.118         -0.091         -0.068          0.123          0.087         -0.197          0.052          0.055         -0.118         -0.093         -0.110         -0.011         -0.353         -0.311          9.373         11.092         -0.300         -0.419         -0.382         -0.482         -0.537         -0.517         -0.426         -0.609         -1.078         -0.541         -0.360         -0.529         -0.931         -0.178         -0.600          0.234          0.098          0.632          1.253          0.700          0.599          0.874          0.564          0.485         -0.044         -0.241          0.253        -19.463          0.824         -0.704          0.289          1.703          1.348         -1.755          1.490         -1.338         -0.986        -18.985         -2.008         -3.062         -0.788          0.632         -8.921         -3.462         -0.336          0.360         -2.481          0.066          0.708          0.670          0.967          0.598          0.405          0.453          0.383          0.292          0.274          0.389          0.282          0.237         10.069          0.319          0.216          0.159          0.189          0.133          9.304         -0.074          7.568          7.526          9.185          8.924          0.062          0.027         -0.208         -0.193          8.890        -10.610          8.874         10.042         -0.310         -0.371         -0.321         -0.292         -0.494         -0.438         -0.466         -0.671         -0.886         -0.537         -0.649         -1.224         -1.058         -0.489         -0.018         -2.007         -0.897          0.205         -3.771         -3.008         -0.232          1.770         -5.367         -0.111          0.414         -0.765          0.090         -0.752          0.314         -0.136         -0.012         -0.001          0.374          0.319         -1.064         -1.170        -19.661         -0.916         -3.830         -2.722         -0.705         -2.322         -5.926         -2.089          0.255          2.701          1.344          0.988          0.842          1.728          0.764          0.926          1.419          0.588          0.600          0.590          0.730          0.438          0.418          0.323          0.222         -0.070         -9.629          0.027         11.323          9.678         -0.006         -0.038         -0.032          9.285        -11.483       -120.498
      12000.000         18.063          0.122          0.059         -0.132          0.102          0.487          0.784          0.181          0.255          0.342          0.189          0.375          0.319          0.304          0.217         10.782         -9.908          9.440         -0.043         -0.140          0.460         -0.282         -0.131         -0.233         -0.717         -0.380         -0.523         -0.646         -0.625         -0.734         -0.870         -0.838         -0.634         -0.814         -0.438         -0.456         -0.244          0.114         -0.199          0.248          0.109          0.775         -2.010         -0.115          1.160          0.900         -0.069          0.550          1.135        -28.379          0.316          1.182          0.978         -0.742          0.164          0.145          0.440         -0.629         -1.337         21.513         -1.048         -0.950         -2.256        -26.417         -1.483         -1.964         -3.354         -1.751         -0.580       -112.311         -8.531          0.334          1.189          1.578          0.716          1.176          2.695          1.285          1.524          2.031          0.883          0.835          0.547          0.594          0.502          0.363        -12.428         12.236          0.264          0.305          0.246          0.203          0.223         -0.107         -0.073         -0.059          0.157          0.082         -0.029          0.125          0.037         -0.126         -0.084         -0.175         -0.060         -0.356         -0.337          9.447         11.454         -0.311         -0.422         -0.410         -0.519         -0.537         -0.503         -0.353         -0.620         -1.157         -0.526         -0.516         -0.963         -0.713         -0.353         -0.698          0.273         -0.112          0.607          1.248          0.464          0.416          0.834          0.509         -0.004          0.193         -0.293          0.140        -18.063          0.745         -1.125          0.542          1.535          1.058         -0.831          0.801         -1.093         -1.072        -18.817         -1.395         -2.352         -0.590          0.442         -4.014         -2.639         -0.304          0.324         -2.735         -0.031          0.502          0.645          0.924          0.642          0.332          0.463          0.590          0.344          0.294          0.405          0.273          0.198         10.072          0.291          0.185          0.143          0.200          0.103          9.417         -0.031          7.284          7.659          9.088          8.809          0.028          0.080         -0.187         -0.219          8.727        -10.669          9.572          9.665         -0.331         -0.321         -0.412         -0.360         -0.535         -0.441         -0.386         -0.592         -0.778         -0.499         -0.660         -1.175         -1.230         -0.402         -0.082         -2.628         -1.191         -0.146         -5.576         -3.983         -0.229          1.920         -3.402          0.060          0.413          2.087          0.143         -0.577          0.263          0.053          0.153         -0.012          0.481          0.179         -1.020         -1.245        -19.699         -1.232         -2.430         -3.325         -1.306         -2.981         -6.572         -2.928          0.115          4.187          2.014          1.141          1.328          2.403          0.950          0.896          1.470          0.517          0.556          0.605          0.456          0.350          0.329          0.317          0.130         -0.065        -10.039          0.039         11.682          9.095         -0.024         -0.026          0.066          9.305        -11.544       -118.286
      16000.000         16.800          0.142          0.141         -0.166          0.179          0.449          0.789          0.213          0.287          0.511          0.179          0.230          0.264          0.297          0.174         10.047         -9.931          9.231         -0.022         -0.119          0.298         -0.288         -0.162         -0.525         -0.615         -0.334         -0.492         -0.611         -0.578         -0.497         -0.775         -0.687         -0.599         -0.797         -0.497         -0.603         -0.164          0.113         -0.559          0.449          0.335          0.185          0.151         -0.087          1.363          1.068         -0.065          0.516          1.140        -28.833          0.457          1.159          0.971         -0.777          0.297          0.157          0.262         -0.504         -1.340         21.950         -0.922         -0.893         -2.115        -26.716         -1.072         -2.022         -3.341         -1.470         -0.424       -105.117        -10.100          0.356          3.012          0.578          0.770          0.870          2.046          1.234          1.305          1.922          0.873          0.777          0.474          0.500          0.534          0.377        -12.052         12.408          0.234          0.268          0.229          0.224          0.213         -0.092         -0.077         -0.054          0.082          0.071         -0.103          0.094          0.042         -0.117         -0.020         -0.148         -0.056         -0.339         -0.401          9.273         11.132         -0.344         -0.403         -0.379         -0.518         -0.531         -0.425         -0.417         -0.545         -0.807         -0.505         -0.451         -0.958         -0.744         -0.148         -0.028          0.500          0.034          0.413          1.106          0.452          0.392          0.792          0.508          0.407          0.197         -0.449          0.101        -18.761          0.904         -1.330          0.395          1.855          0.697         -1.195         -0.352         -1.658         -1.045        -19.030         -2.002         -2.672         -0.986          0.119         -6.312         -2.778         -0.205          0.145         -3.838         -0.140          0.687          0.492          0.864          0.588          0.344          0.519          0.594          0.372          0.281          0.392          0.183          0.239         10.014          0.336          0.230          0.149          0.183          0.107          9.520         -0.066          7.226          7.698          8.966          8.707          0.035          0.050         -0.227         -0.213          9.663        -11.199          9.058          9.474         -0.312         -0.482         -0.256         -0.253         -0.448         -0.458         -0.461         -0.621         -0.688         -0.516         -0.851         -1.214         -0.871         -0.444         -0.364         -2.890         -1.034         -0.151         -7.795         -2.730         -0.275          2.172         -2.677          0.219          0.623          2.824          0.209         -0.954          0.455         -0.014          0.049          0.071          0.472          0.469         -1.432         -1.372        -20.291         -1.376         -4.177         -3.238         -1.274         -2.382         -6.136         -2.126          0.880          4.272          3.153          0.833          1.140          1.989          0.873          1.011          1.233          0.546          0.579          0.598          0.527          0.403          0.434          0.264          0.256         -0.092         -9.821          0.062         10.569          9.585         -0.037         -0.054          0.009          9.612        -11.832       -119.243
      20000.000         17.121          0.114          0.098         -0.144          0.124          0.501          0.696          0.168          0.258          0.394          0.099          0.133          0.284          0.284          0.204         10.272         -9.974          9.060         -0.042         -0.089          0.404         -0.304         -0.150         -0.346         -0.672         -0.366         -0.507         -0.613         -0.542         -0.478         -0.720         -0.572         -0.527         -0.724         -0.655         -0.612         -0.269          0.029         -0.136          0.134         -0.129         -0.232         -1.321         -0.105          1.306          0.968          0.167          0.478          1.689        -25.547          0.355          1.202         -0.768         -0.882         -0.063          0.129          0.407         -0.587         -1.212         20.988         -1.068         -1.005         -2.289        -26.314         -1.244         -1.570         -2.988         -1.830         -0.995       -109.597         -9.301          0.690          2.804          1.806          1.049          0.954          2.558          1.231          1.521          1.633          0.785          0.741          0.458          0.566          0.528          0.352        -11.931         12.189          0.252          0.289          0.234          0.235          0.206         -0.107         -0.107         -0.051          0.168          0.074         -0.051          0.108         -0.047         -0.162         -0.080         -0.206          0.001         -0.320         -0.401          9.530         11.159         -0.312         -0.364         -0.381         -0.472         -0.532         -0.560         -0.423         -0.409         -0.784         -0.499         -0.395         -0.869         -0.645         -0.195         -1.089          0.206          0.079          0.394          1.305          0.433          0.415          0.869          0.552          0.001          0.005         -0.356          0.470        -18.446          0.721         -1.493          0.206          1.175          0.512         -1.633          1.378         -1.467         -1.068        -18.718         -1.732         -1.720         -0.869          0.288         -6.092         -3.405         -0.284          0.342         -2.520          0.057          0.950          0.482          0.784          0.547          0.343          0.470          0.626          0.324          0.301          0.391          0.204          0.244         10.043          0.298          0.200          0.149          0.209          0.191          9.344         -0.084          7.433          7.576          8.987          8.761          0.038          0.073         -0.221         -0.203          9.326        -10.890          9.208          9.697         -0.318         -0.469         -0.364         -0.153         -0.506         -0.512         -0.483         -0.731         -0.841         -0.472         -0.631         -1.250         -1.215         -0.570         -0.330         -2.218         -0.974         -0.064         -5.776         -4.738         -0.196          1.803         -4.763         -0.064          0.541          3.189         -0.478         -1.279          0.264          0.122          0.001          0.072          0.467          0.317         -1.316         -1.263        -19.933         -1.096         -4.310         -3.263         -0.878         -2.016         -6.136         -3.296          0.100          3.793         -0.841          1.351          1.593          2.263          0.878          0.995          1.314          0.578          0.568          0.572          0.431          0.427          0.468          0.290          0.245         -0.093         -9.871          0.082         11.010          9.585         -0.030          0.025          0.007         10.071        -11.961       -125.558
      24000.000         16.188          0.035          0.106         -0.191          0.113          0.477          0.814          0.147          0.194          0.388          0.104          0.126          0.263          0.304          0.195          9.853         -9.738          8.708         -0.051         -0.127          0.365         -0.189         -0.108         -0.328         -0.538         -0.349         -0.477         -0.619         -0.536         -0.550         -0.808         -0.668         -0.582         -0.705         -0.767         -0.437         -0.051         -0.011         -0.176         -0.301         -0.180          0.950         -0.313         -0.084          0.868          0.955         -0.034          0.638          1.525        -28.678          0.303          0.607          0.499         -0.688          0.112         -0.174          0.179         -0.922         -1.218         21.944         -1.040         -0.787         -2.077        -26.947         -1.558         -2.207         -3.633         -1.351         -0.479       -109.252         -6.381          0.506          2.723         -0.172          1.183          0.998          2.658          1.063          1.284          1.760          0.802          0.751          0.474          0.512          0.575          0.374        -11.751         11.885          0.273          0.242          0.223          0.233          0.172          0.057         -0.128         -0.074         -0.201          0.061         -0.043         -0.028          0.060         -0.007         -0.015         -0.079          0.000         -0.265         -0.274          9.345         10.634         -0.322         -0.392         -0.348         -0.463         -0.533         -0.404         -0.482         -0.658         -0.919         -0.352         -0.377         -0.875         -1.084         -0.185         -0.208         -0.020         -0.160          0.504          1.399          0.389          0.547          0.807          0.645         -0.819          0.322         -0.115          0.006        -17.368          0.735         -0.737          0.130          1.636          0.891         -0.257          0.066         -1.653         -1.021        -18.860         -0.930         -2.512         -0.946          0.445         -5.558         -2.233         -0.462          0.167         -3.039         -0.093          0.849          0.360          0.759          0.579          0.296          0.428          0.528          0.306          0.287          0.369          0.204          0.223         10.174          0.316          0.162          0.160          0.187          0.193          8.947         -0.073          7.118          7.326          8.803          8.410         -0.048          0.070         -0.180         -0.209          8.329        -10.558          8.960          9.505         -0.243         -0.401         -0.342         -0.473         -0.435         -0.317         -0.439         -0.568         -0.822         -0.562         -0.740         -0.916         -0.983         -0.505          0.068         -3.115         -1.090          0.133         -4.923         -3.354         -0.189          1.509         -3.353         -0.399          0.429          3.145          0.023         -0.995          0.290         -0.076          1.106          0.272          0.324         -0.150         -1.217         -1.316        -20.199         -1.210         -3.538         -2.514         -1.649         -3.166         -6.427         -2.658          0.438          4.045          1.474          0.929          0.696          1.488          0.779          0.889          1.450          0.520          0.496          0.530          0.495          0.391          0.361          0.263         -0.040         -0.095         -9.525          0.002         10.502          9.199         -0.104         -0.017          0.033         10.724        -12.742       -125.253