# Time	LEU-41	ALA-42	ILE-43	VAL-44	PHE-45	GLY-46	ASN-47	GLY-48	LEU-49	VAL-50	CYS-51	MET-52	ALA-53	VAL-54	LEU-55	LYS-56	GLU-57	ARG-58	ALA-59	LEU-60	GLN-61	THR-62	THR-63	THR-64	ASN-65	TYR-66	LEU-67	VAL-68	VAL-69	SER-70	LEU-71	ALA-72	VAL-73	ALA-74	ASH-75	LEU-76	LEU-77	VAL-78	ALA-79	THR-80	LEU-81	VAL-82	MET-83	PRO-84	TRP-85	VAL-86	VAL-87	TYR-88	LEU-89	GLU-90	VAL-91	THR-92	GLY-93	GLY-94	VAL-95	TRP-96	ASN-97	PHE-98	SER-99	ARG-100	ILE-101	CYS-102	CYX-103	ASP-104	VAL-105	PHE-106	VAL-107	THR-108	LEU-109	ASP-110	VAL-111	MET-112	MET-113	CYS-114	THR-115	ALA-116	SER-117	ILE-118	TRP-119	ASN-120	LEU-121	CYS-122	ALA-123	ILE-124	SER-125	ILE-126	ASP-127	ARG-128	TYR-129	THR-130	ALA-131	VAL-132	VAL-133	MET-134	PRO-135	VAL-136	HID-137	TYR-138	GLN-139	HID-140	GLY-141	THR-142	GLY-143	GLN-144	SER-145	SER-146	CYS-147	ARG-148	ARG-149	VAL-150	ALA-151	LEU-152	MET-153	ILE-154	THR-155	ALA-156	VAL-157	TRP-158	VAL-159	LEU-160	ALA-161	PHE-162	ALA-163	VAL-164	SER-165	CYS-166	PRO-167	LEU-168	LEU-169	PHE-170	GLY-171	PHE-172	ASN-173	THR-174	THR-175	GLY-176	ASP-177	PRO-178	THR-179	VAL-180	CYX-181	SER-182	ILE-183	SER-184	ASN-185	PRO-186	ASP-187	PHE-188	VAL-189	ILE-190	TYR-191	SER-192	SER-193	VAL-194	VAL-195	SER-196	PHE-197	TYR-198	LEU-199	PRO-200	PHE-201	GLY-202	VAL-203	THR-204	VAL-205	LEU-206	VAL-207	TYR-208	ALA-209	ARG-210	ILE-211	TYR-212	VAL-213	VAL-214	LEU-215	LYS-216	GLN-217	ARG-218	ARG-219	ARG-220	LYS-221	GLY-319	VAL-320	PRO-321	LEU-322	ARG-323	GLU-324	LYS-325	LYS-326	ALA-327	THR-328	GLN-329	MET-330	VAL-331	ALA-332	ILE-333	VAL-334	LEU-335	GLY-336	ALA-337	PHE-338	ILE-339	VAL-340	CYS-341	TRP-342	LEU-343	PRO-344	PHE-345	PHE-346	LEU-347	THR-348	HIE-349	VAL-350	LEU-351	ASN-352	THR-353	HID-354	CYX-355	GLN-356	THR-357	CYX-358	HID-359	VAL-360	SER-361	PRO-362	GLU-363	LEU-364	TYR-365	SER-366	ALA-367	THR-368	THR-369	TRP-370	LEU-371	GLY-372	TYR-373	VAL-374	ASN-375	SER-376	ALA-377	LEU-378	ASN-379	PRO-380	VAL-381	ILE-382	TYR-383	THR-384	THR-385	PHE-386	ASN-387	ILE-388	GLU-389	PHE-390	ARG-391	LYS-392	ALA-393	PHE-394	LEU-395	LYS-396	ILE-397	DPN-14602	
          0.000         -0.397          0.034          0.037          0.040          0.055         -0.047         -0.210         -0.012         -0.023         -0.055         -0.012         -0.014         -0.029         -0.033         -0.024         -0.188          0.228         -0.125          0.001          0.018         -0.035          0.028          0.021          0.027          0.062          0.036          0.064          0.073          0.087          0.094          0.111          0.112          0.132          0.163          0.210          0.152          0.137          0.153          0.148          0.041          0.065          0.025          0.419          0.372          0.204          0.515          0.377          0.056         -0.382         47.356         -0.054         -0.243         -0.331         -0.159          0.010         -0.008         -0.065         -0.056          0.098         -1.184          0.105          0.112          0.197          1.715          0.248          0.962          0.465         -0.002         -0.200         27.882          0.046         -0.184         -0.293         -0.234         -0.168         -0.110         -0.125         -0.084         -0.079         -0.179         -0.089         -0.064         -0.053         -0.058         -0.052         -0.039          0.447         -0.442         -0.020         -0.032         -0.019         -0.016         -0.011         -0.003          0.003          0.006         -0.001         -0.012         -0.013         -0.002         -0.003         -0.009         -0.001         -0.002          0.007          0.012          0.028         -0.060         -0.185          0.030          0.042          0.042          0.017          0.057          0.051          0.049          0.034          0.094          0.041          0.005          0.044          0.085          0.007         -0.014         -0.006          0.020         -0.034         -0.113         -0.037          0.014          0.025         -0.020         -0.040         -0.026         -0.054         -0.004          0.731          0.029         -0.018          0.071          0.193         -0.011          0.043         -0.052          0.015          0.016          0.276          0.018          0.045          0.051          0.035          0.123          0.062          0.059          0.027          0.060          0.004          0.045         -0.012         -0.051         -0.066         -0.031         -0.044         -0.039         -0.046         -0.033         -0.050         -0.034         -0.033         -0.182         -0.032         -0.011         -0.011         -0.017         -0.014         -0.069          0.005         -0.022         -0.123         -0.014         -0.015          0.001         -0.009          0.013          0.018         -0.087          0.260         -0.106         -0.082          0.033          0.046          0.033          0.059          0.058          0.074          0.070          0.087          0.118          0.117          0.153          0.170          0.191          0.168          0.189         -0.004          0.179          0.221          0.735          0.186          0.041          0.180          2.910         -0.032         -0.211         -0.101         -0.235         -0.102          0.033          0.090          0.022          0.078          0.150         -0.033          0.513          0.722          3.187          0.315          5.336         -0.450          0.234         -0.555          0.532         -0.692         -0.169         -0.450          0.838         -0.171         -0.395         -0.264         -0.189         -0.171         -0.131         -0.079         -0.074         -0.095         -0.056         -0.057         -0.045         -0.039         -0.044         -0.005          0.235         -0.020         -0.109         -0.080          0.022         -0.009         -0.016         -0.116          0.446        127.710
       4000.000         -0.388          0.049          0.116          0.166          0.058         -0.037         -0.184         -0.059         -0.035         -0.066         -0.044         -0.030         -0.033         -0.038         -0.020         -0.212          0.253         -0.074          0.007          0.019         -0.032          0.035          0.023          0.030          0.076          0.059          0.080          0.085          0.099          0.138          0.136          0.145          0.153          0.235          0.239          0.176          0.211          0.283          0.265          0.066          0.351          0.257          0.561          0.590          0.685          3.335          0.634          0.102         -0.912         19.111         -0.258         -0.510          0.025          0.258          0.162          0.180         -0.015         -0.155          0.173         -1.738          0.125          0.134          0.316          2.337          0.239          1.004          0.886          0.048         -0.281         35.848         -0.004         -0.381         -0.620         -0.563         -0.243         -0.152         -0.160         -0.106         -0.130         -0.215         -0.083         -0.096         -0.058         -0.060         -0.050         -0.040          0.454         -0.451         -0.026         -0.029         -0.020         -0.012         -0.009         -0.006          0.003          0.007         -0.003         -0.008         -0.018         -0.004         -0.005         -0.008         -0.003         -0.005          0.010          0.020          0.020         -0.076         -0.237          0.039          0.051          0.061          0.037          0.074          0.058          0.065          0.092          0.132          0.090          0.060          0.110          0.072          0.013         -0.058         -0.134          0.003         -0.044         -0.158         -0.070         -0.016         -0.003         -0.052         -0.073         -0.056         -0.061         -0.022          1.151          0.079          0.011          0.073          0.152         -0.123          0.050          0.001          0.026          0.047          0.427          0.041          0.056          0.052          0.020          0.087          0.077          0.032          0.018          0.118          0.007          0.017         -0.025         -0.061         -0.052         -0.043         -0.054         -0.038         -0.040         -0.021         -0.046         -0.030         -0.025         -0.185         -0.025         -0.010         -0.010         -0.013         -0.014         -0.066          0.010         -0.019         -0.115         -0.012         -0.016          0.002         -0.008          0.014          0.015         -0.205          0.282         -0.106         -0.199          0.028          0.043          0.055          0.047          0.043          0.047          0.061          0.063          0.079          0.045          0.062          0.059          0.069          0.045          0.073         -0.117          0.004         -0.045          0.019         -0.025         -0.046         -0.019         -0.088         -0.058         -0.068         -0.188         -0.074         -0.007          0.002         -0.002         -0.008          0.037         -0.008         -0.059          0.166          0.277          1.449          0.244          0.251         -0.927          0.213          0.061         -0.025         -0.393          0.037         -0.250          0.286         -0.042         -0.276         -0.146         -0.132         -0.142         -0.126         -0.101         -0.079         -0.084         -0.059         -0.049         -0.061         -0.034         -0.041         -0.002          0.283         -0.018         -0.263         -0.053          0.019         -0.002         -0.006         -0.167          0.395         93.747
       8000.000         -0.372          0.032          0.057          0.073         -0.022         -0.040         -0.134         -0.010         -0.020         -0.060         -0.092         -0.035         -0.028         -0.033         -0.028         -0.160          0.206         -0.135          0.007          0.014         -0.026          0.026          0.022          0.028          0.065          0.051          0.067          0.069          0.093          0.130          0.138          0.100          0.157          0.219          0.213          0.161          0.171          0.278          0.207          0.098          0.255          0.186          0.429          0.227         -0.284          0.105          0.143         -0.215         -0.532          9.262         -0.192         -0.195         -0.332          0.332         -0.022         -0.079         -0.107         -0.162          0.228         -3.388          0.174          0.145          0.522          3.573          0.177          0.532          0.019         -0.174         -0.403         26.215         -0.209         -0.214         -0.548         -0.484         -0.309         -0.158         -0.172         -0.063         -0.098         -0.164         -0.059         -0.077         -0.049         -0.049         -0.040         -0.035          0.367         -0.366         -0.022         -0.025         -0.016         -0.012         -0.009          0.002          0.003          0.006          0.002         -0.005         -0.009          0.000         -0.003         -0.005         -0.000         -0.002          0.010          0.014          0.022         -0.054         -0.205          0.038          0.040          0.054          0.032          0.074          0.060          0.069          0.067          0.112          0.087          0.040          0.092          0.088          0.036         -0.033          0.015          0.059          0.001          0.042          0.014          0.006          0.021         -0.031          0.035         -0.059         -0.066         -0.021          2.387          0.094          0.010         -0.128         -0.113          0.057          0.091          0.027          0.098          0.038          0.424         -0.003          0.019          0.020         -0.021         -0.027          0.051         -0.003         -0.008         -0.017          0.038          0.018         -0.029         -0.044         -0.029         -0.036         -0.039         -0.029         -0.021         -0.018         -0.031         -0.016         -0.017         -0.134         -0.020         -0.008         -0.008         -0.013         -0.011         -0.061          0.007         -0.016         -0.100         -0.016         -0.011          0.002         -0.006          0.010          0.015         -0.134          0.227         -0.091         -0.184          0.028          0.032          0.037          0.040          0.036          0.040          0.043          0.049          0.051          0.041          0.043          0.022          0.021          0.027          0.008          0.005         -0.004         -0.045         -0.033         -0.030         -0.038         -0.045         -0.123         -0.051         -0.039         -0.086         -0.049         -0.004         -0.004          0.003          0.002         -0.007          0.031         -0.037          0.063          0.105          0.557          0.108          0.063         -0.013          0.129          0.079          0.110          0.087          0.090         -0.070          0.073          0.002         -0.081         -0.143         -0.134         -0.081         -0.121         -0.082         -0.058         -0.061         -0.045         -0.044         -0.039         -0.032         -0.035         -0.000          0.212         -0.008         -0.218         -0.109          0.020         -0.007         -0.013         -0.261          0.337         74.181
      12000.000         -0.615          0.046          0.075          0.024          0.042         -0.056         -0.162         -0.037         -0.033         -0.064         -0.046         -0.045         -0.040         -0.041         -0.034         -0.245          0.342         -0.113          0.008          0.024         -0.032          0.042          0.019          0.033          0.093          0.058          0.068          0.081          0.092          0.109          0.101          0.143          0.116          0.137          0.140          0.157          0.088          0.091          0.115          0.093         -0.012         -0.182          0.189          0.094         -0.032         -0.024         -0.042         -0.029         -0.231         11.551         -0.073         -0.045         -0.168         -0.108          0.008          0.025          0.026         -0.030          0.064         -0.436          0.082          0.151          0.084          0.958          0.229          0.784          0.811          0.136         -0.106         30.393          0.291         -0.072         -0.415          0.114         -0.108         -0.091         -0.147         -0.107         -0.092         -0.201         -0.129         -0.084         -0.068         -0.085         -0.086         -0.071          0.708         -0.762         -0.040         -0.058         -0.036         -0.025         -0.021         -0.009          0.004          0.009         -0.000         -0.026         -0.024         -0.005         -0.006         -0.008         -0.004          0.006          0.003          0.019          0.024         -0.088         -0.190          0.052          0.078          0.074          0.095          0.091          0.074          0.079          0.069          0.115          0.078         -0.007          0.038          0.058         -0.012         -0.101         -0.080         -0.089         -0.063         -0.077         -0.063         -0.014         -0.039         -0.042          0.030         -0.002         -0.027          0.007          0.329          0.011         -0.025          0.092          0.048         -0.071         -0.094         -0.082         -0.009          0.087          0.761          0.118          0.220          0.191          0.165          0.074          0.254          0.147          0.031          0.181          0.039          0.174         -0.018         -0.156         -0.242         -0.136         -0.108         -0.164         -0.125         -0.072         -0.106         -0.070         -0.061         -0.364         -0.054         -0.017         -0.019         -0.024         -0.027         -0.124          0.011         -0.083         -0.236         -0.016         -0.053          0.001         -0.013          0.021          0.028         -0.261          0.468         -0.165         -0.291          0.052          0.073          0.076          0.095          0.090          0.122          0.129          0.126          0.173          0.228          0.202          0.238          0.310          0.288          0.259          0.601          0.360          0.370          2.973          0.838          0.271          0.135          2.818         -0.162         -0.318         -0.824         -0.516         -0.174          0.191         -0.000         -0.024          0.230         -0.020         -0.190          0.576          0.552          2.991          0.275          2.775          0.274          0.179         -0.227          1.136          0.092         -0.246         -0.847          0.924         -0.245         -0.227         -0.210         -0.227         -0.203         -0.208         -0.079         -0.108         -0.132         -0.082         -0.070         -0.088         -0.052         -0.068         -0.005          0.375         -0.011         -0.194         -0.183          0.034         -0.008         -0.017         -0.459          0.634        119.346
      16000.000         -0.512         -0.030          0.089          0.095          0.062         -0.041         -0.220         -0.067         -0.032         -0.058         -0.020         -0.028         -0.030         -0.027         -0.021         -0.210          0.205         -0.064         -0.002          0.013         -0.014          0.003          0.014          0.022          0.066          0.049          0.065          0.072          0.081          0.069          0.109          0.125          0.124          0.146          0.225          0.161          0.189          0.269          0.211          0.020          0.188          0.235          0.513          0.518          0.555          1.487          0.648          0.018          0.295         45.439         -0.097         -0.280         -0.445          1.383          0.440          0.273          0.001         -0.082          0.097         -1.580          0.072          0.139          0.054          1.916          0.195          1.118          0.564          0.059         -0.165         23.877         -0.003         -0.155         -0.392         -0.513         -0.221         -0.137         -0.138         -0.083         -0.096         -0.162         -0.073         -0.079         -0.048         -0.051         -0.048         -0.036          0.359         -0.368         -0.024         -0.030         -0.015         -0.010         -0.009         -0.000          0.002          0.004         -0.002         -0.007         -0.005         -0.002         -0.008         -0.005         -0.003          0.005          0.010          0.019          0.016         -0.043         -0.144          0.032          0.045          0.046          0.037          0.060          0.058          0.056          0.033          0.096          0.064          0.029          0.034          0.050          0.025         -0.040          0.004          0.031         -0.013         -0.089         -0.057          0.019         -0.053         -0.036         -0.073         -0.002         -0.012          0.034          1.320          0.060          0.145          0.159          0.552         -0.097          0.029          0.031         -0.040          0.022          0.500         -0.001          0.026          0.035         -0.004          0.013          0.081          0.025          0.021          0.021          0.007          0.025         -0.026         -0.051         -0.045         -0.031         -0.038         -0.046         -0.034         -0.024         -0.042         -0.039         -0.020         -0.157         -0.026         -0.008         -0.010         -0.011         -0.011         -0.067          0.007         -0.015         -0.101         -0.007         -0.017         -0.005         -0.008          0.010          0.011         -0.035          0.225         -0.081         -0.047          0.026          0.034          0.025          0.031          0.031          0.038          0.041          0.050          0.065          0.053          0.067          0.068          0.072          0.062          0.104          0.004          0.055          0.007          0.016          0.001         -0.057         -0.006          0.235         -0.054         -0.097         -0.070         -0.093         -0.029         -0.009         -0.019         -0.027          0.017         -0.007         -0.121          0.213          0.742          2.286          0.276          0.061         -2.086          0.248         -0.167         -0.592         -1.268          0.005         -0.248          0.314         -0.102         -0.201         -0.197         -0.158         -0.111         -0.124         -0.068         -0.056         -0.065         -0.054         -0.041         -0.051         -0.021         -0.032          0.004          0.221         -0.016         -0.245         -0.052          0.022         -0.003         -0.015         -0.258          0.513        115.657
      20000.000         -0.354          0.044          0.085          0.099          0.035         -0.033         -0.159         -0.039         -0.026         -0.052         -0.011         -0.013         -0.028         -0.033         -0.025         -0.106          0.183         -0.051          0.004          0.013         -0.033          0.019          0.017          0.020          0.061          0.037          0.052          0.058          0.069          0.105          0.103          0.107          0.112          0.142          0.209          0.111          0.169          0.238          0.245          0.058          0.224          0.255          0.606          0.548          0.873          1.582          0.813          0.324          2.206         50.004         -0.132         -0.330         -0.703          0.929          0.401          0.260          0.035         -0.088          0.085         -1.783          0.077          0.075          0.055          1.952          0.174          1.276          0.429          0.079         -0.224         27.040         -0.058         -0.152         -0.347         -0.444         -0.194         -0.113         -0.102         -0.076         -0.100         -0.161         -0.064         -0.057         -0.042         -0.045         -0.047         -0.034          0.350         -0.350         -0.021         -0.023         -0.016         -0.010         -0.009          0.002          0.002          0.003          0.003         -0.004          0.008         -0.005         -0.000         -0.004          0.000          0.000          0.010          0.020          0.022         -0.071         -0.124          0.030          0.041          0.041          0.038          0.058          0.054          0.054          0.039          0.105          0.067          0.029          0.072          0.058          0.018         -0.044         -0.028          0.030         -0.028         -0.046         -0.058         -0.051         -0.036         -0.030         -0.027         -0.046         -0.003          0.042          1.038          0.142          0.266          0.082          0.697         -0.035          0.031          0.005          0.068          0.040          0.376          0.008          0.054          0.047          0.009          0.012          0.073          0.025         -0.000          0.002         -0.009          0.027         -0.016         -0.059         -0.049         -0.038         -0.042         -0.045         -0.036         -0.024         -0.041         -0.044         -0.024         -0.153         -0.023         -0.009         -0.009         -0.013         -0.012         -0.051          0.002         -0.016         -0.092         -0.006         -0.010         -0.002         -0.006          0.009          0.009         -0.018          0.205         -0.067         -0.045          0.022          0.033          0.026          0.032          0.028          0.030          0.037          0.041          0.056          0.049          0.062          0.059          0.068          0.057          0.096          0.078          0.021         -0.004         -0.048         -0.009         -0.029         -0.017          0.062         -0.043         -0.069         -0.068         -0.069         -0.013          0.009         -0.014         -0.013          0.031          0.032         -0.036          0.170          0.376          1.400          0.217          0.202         -0.187          0.187         -0.106         -0.451         -1.027         -0.027         -0.165         -1.169         -0.117         -0.141         -0.166         -0.124         -0.098         -0.066         -0.063         -0.042         -0.054         -0.046         -0.041         -0.037         -0.023         -0.034          0.004          0.186         -0.015         -0.200         -0.068          0.016         -0.007         -0.014         -0.111          0.440        132.336
      24000.000         -0.510          0.021          0.051          0.145          0.012         -0.054         -0.225         -0.069         -0.043         -0.056         -0.088         -0.027         -0.033         -0.037         -0.026         -0.209          0.233         -0.057          0.004          0.012         -0.036          0.025          0.020          0.019          0.048          0.046          0.058          0.065          0.087          0.120          0.116          0.136          0.143          0.173          0.192          0.148          0.202          0.256          0.172          0.041          0.261          0.187          0.506          0.450          0.867          1.304          0.865          0.154         -0.911         51.535         -0.094         -0.488         -0.524          0.263          0.374          0.604          0.109          0.038         -0.024         -0.616          0.070          0.150         -0.017          1.213          0.228          1.237          0.548          0.015         -0.203         27.676         -0.062         -0.184         -0.372         -0.519         -0.215         -0.131         -0.224         -0.086         -0.087         -0.182         -0.084         -0.075         -0.048         -0.050         -0.061         -0.041          0.407         -0.413         -0.025         -0.028         -0.017         -0.013         -0.012          0.000          0.004          0.005         -0.002         -0.009         -0.003         -0.000         -0.002         -0.009         -0.002         -0.005          0.012          0.018          0.023         -0.045         -0.134          0.032          0.047          0.040          0.025          0.061          0.054          0.059          0.048          0.081          0.037          0.010          0.021          0.042         -0.010         -0.060         -0.062         -0.010         -0.054         -0.111         -0.063         -0.033         -0.037         -0.024         -0.031         -0.013         -0.024          0.032          0.584         -0.197         -0.145          0.094          0.372         -0.077          0.018          0.017         -0.019          0.038          0.292          0.027          0.059          0.050          0.032          0.045          0.076          0.037          0.008          0.035         -0.001         -0.018         -0.014         -0.059         -0.060         -0.044         -0.047         -0.048         -0.035         -0.021         -0.036         -0.027         -0.020         -0.191         -0.028         -0.015         -0.012         -0.013         -0.013         -0.073          0.010         -0.021         -0.118         -0.006         -0.010         -0.002         -0.006          0.011          0.010         -0.129          0.242         -0.073         -0.078          0.029          0.038          0.012          0.032          0.034          0.027          0.040          0.057          0.077          0.073          0.081          0.095          0.086          0.048          0.146          0.052          0.047         -0.009         -0.020          0.002         -0.054          0.063          0.120         -0.041         -0.078         -0.152         -0.106         -0.016          0.035          0.034         -0.016          0.029          0.031         -0.056          0.225          0.608          2.416          0.419          0.239         -0.723          0.165         -0.159         -0.522         -1.296         -0.062         -0.252          0.366         -0.164         -0.215         -0.178         -0.175         -0.121         -0.081         -0.076         -0.074         -0.074         -0.060         -0.045         -0.049         -0.032         -0.049          0.001          0.244         -0.010         -0.144         -0.093          0.019         -0.002         -0.002         -0.250          0.569        116.141