# Time	LEU-41	ALA-42	ILE-43	VAL-44	PHE-45	GLY-46	ASN-47	GLY-48	LEU-49	VAL-50	CYS-51	MET-52	ALA-53	VAL-54	LEU-55	LYS-56	GLU-57	ARG-58	ALA-59	LEU-60	GLN-61	THR-62	THR-63	THR-64	ASN-65	TYR-66	LEU-67	VAL-68	VAL-69	SER-70	LEU-71	ALA-72	VAL-73	ALA-74	ASH-75	LEU-76	LEU-77	VAL-78	ALA-79	THR-80	LEU-81	VAL-82	MET-83	PRO-84	TRP-85	VAL-86	VAL-87	TYR-88	LEU-89	GLU-90	VAL-91	THR-92	GLY-93	GLY-94	VAL-95	TRP-96	ASN-97	PHE-98	SER-99	ARG-100	ILE-101	CYS-102	CYX-103	ASP-104	VAL-105	PHE-106	VAL-107	THR-108	LEU-109	ASP-110	VAL-111	MET-112	MET-113	CYS-114	THR-115	ALA-116	SER-117	ILE-118	TRP-119	ASN-120	LEU-121	CYS-122	ALA-123	ILE-124	SER-125	ILE-126	ASP-127	ARG-128	TYR-129	THR-130	ALA-131	VAL-132	VAL-133	MET-134	PRO-135	VAL-136	HID-137	TYR-138	GLN-139	HID-140	GLY-141	THR-142	GLY-143	GLN-144	SER-145	SER-146	CYS-147	ARG-148	ARG-149	VAL-150	ALA-151	LEU-152	MET-153	ILE-154	THR-155	ALA-156	VAL-157	TRP-158	VAL-159	LEU-160	ALA-161	PHE-162	ALA-163	VAL-164	SER-165	CYS-166	PRO-167	LEU-168	LEU-169	PHE-170	GLY-171	PHE-172	ASN-173	THR-174	THR-175	GLY-176	ASP-177	PRO-178	THR-179	VAL-180	CYX-181	SER-182	ILE-183	SER-184	ASN-185	PRO-186	ASP-187	PHE-188	VAL-189	ILE-190	TYR-191	SER-192	SER-193	VAL-194	VAL-195	SER-196	PHE-197	TYR-198	LEU-199	PRO-200	PHE-201	GLY-202	VAL-203	THR-204	VAL-205	LEU-206	VAL-207	TYR-208	ALA-209	ARG-210	ILE-211	TYR-212	VAL-213	VAL-214	LEU-215	LYS-216	GLN-217	ARG-218	ARG-219	ARG-220	LYS-221	GLY-319	VAL-320	PRO-321	LEU-322	ARG-323	GLU-324	LYS-325	LYS-326	ALA-327	THR-328	GLN-329	MET-330	VAL-331	ALA-332	ILE-333	VAL-334	LEU-335	GLY-336	ALA-337	PHE-338	ILE-339	VAL-340	CYS-341	TRP-342	LEU-343	PRO-344	PHE-345	PHE-346	LEU-347	THR-348	HIE-349	VAL-350	LEU-351	ASN-352	THR-353	HID-354	CYX-355	GLN-356	THR-357	CYX-358	HID-359	VAL-360	SER-361	PRO-362	GLU-363	LEU-364	TYR-365	SER-366	ALA-367	THR-368	THR-369	TRP-370	LEU-371	GLY-372	TYR-373	VAL-374	ASN-375	SER-376	ALA-377	LEU-378	ASN-379	PRO-380	VAL-381	ILE-382	TYR-383	THR-384	THR-385	PHE-386	ASN-387	ILE-388	GLU-389	PHE-390	ARG-391	LYS-392	ALA-393	PHE-394	LEU-395	LYS-396	ILE-397	DPN-14602	
          0.000         11.148         -0.172         -0.274         -0.342         -0.149          0.314          0.785          0.154          0.218          0.324          0.168          0.073          0.196          0.234          0.188          8.657         -8.606          7.884         -0.022         -0.102          0.276         -0.203         -0.159         -0.144         -0.396         -0.173         -0.324         -0.350         -0.384         -0.365         -0.469         -0.416         -0.420         -0.527         -1.187         -0.554         -0.488         -0.523         -0.438         -0.089         -0.258         -1.488         -1.900         -1.186          0.099         -5.246         -1.718          0.392          1.806        -87.876         -0.025          0.672          1.551          0.024          0.490          0.719          1.291          0.713         -0.841         24.401         -0.658         -0.304         -1.608        -22.976         -0.626         -2.030         -1.229         -0.177          0.580        -65.046         -0.084          0.517          0.928          1.550          0.584          0.495          0.617          0.635          0.701          0.987          0.521          0.384          0.299          0.337          0.285          0.227        -10.089         10.153          0.172          0.206          0.157          0.162          0.142         -0.031         -0.050         -0.063          0.123          0.074          0.152          0.043          0.049          0.074         -0.022         -0.055         -0.080         -0.119         -0.195          7.745          8.690         -0.191         -0.235         -0.231         -0.080         -0.310         -0.318         -0.233         -0.277         -0.559         -0.242         -0.164         -0.401         -0.567         -0.088         -0.324         -0.063         -0.191          0.046          0.266         -0.056         -0.087         -0.342         -0.107         -0.326          0.387         -0.133          0.080        -22.429         -0.736         -1.129          1.033          1.754          1.027         -0.231         -1.084         -0.709         -0.343        -14.881         -0.164         -0.179         -0.381         -0.097          0.403         -0.698         -0.344          0.168         -0.118          0.398          0.786          0.260          0.479          0.392          0.223          0.255          0.338          0.327          0.242          0.277          0.187          0.208          9.192          0.241          0.216          0.130          0.164          0.145          9.061          0.007          6.788          8.038          6.387          6.582          0.042          0.085         -0.157         -0.172          7.905         -8.973          8.113          8.092         -0.202         -0.278         -0.165         -0.390         -0.308         -0.339         -0.326         -0.409         -0.516         -0.426         -0.503         -0.653         -0.862         -0.613         -0.521         -0.826         -1.002         -0.948         -3.695         -1.921         -0.642         -0.901         -6.584         -0.632          0.380         -1.484         -0.375         -0.192         -0.394         -0.297         -0.094         -0.307          0.378         -0.413         -1.815         -1.960        -27.120         -0.484        -10.714          1.439         -0.484          2.022         -4.336          1.606          0.413          1.310          0.030          0.497          1.919          1.021          0.535          0.600          0.674          0.357          0.398          0.441          0.284          0.320          0.277          0.235          0.235          0.039         -8.702          0.092          8.483          7.610         -0.144          0.078          0.035          9.362        -11.165       -153.575
       4000.000         11.621         -0.198         -0.389         -0.414         -0.129          0.277          0.695          0.252          0.230          0.328          0.211          0.197          0.205          0.253          0.205          9.212         -8.738          7.516         -0.038         -0.107          0.252         -0.255         -0.115         -0.138         -0.466         -0.231         -0.370         -0.383         -0.390         -0.446         -0.527         -0.506         -0.490         -0.637         -1.336         -0.585         -0.645         -0.770         -0.561         -0.109         -0.805         -1.845         -2.248         -1.463         -2.475        -12.062         -2.572         -0.155         -1.169        -58.849          0.515          1.415         -0.806         -3.382          0.276          0.090          0.638          0.834         -0.995         22.507         -0.669         -0.343         -1.582        -23.435         -0.496         -3.011         -2.882         -0.199          0.616        -80.508          0.343          0.749          1.661          0.997          0.592          0.565          0.572          0.733          0.858          1.042          0.499          0.551          0.287          0.337          0.275          0.228         -9.968         10.017          0.141          0.173          0.169          0.144          0.127          0.045         -0.043         -0.065         -0.069          0.053          0.147          0.060          0.031          0.038         -0.031          0.049         -0.084         -0.109         -0.107          7.680          8.739         -0.213         -0.235         -0.264         -0.118         -0.314         -0.323         -0.286         -0.457         -0.575         -0.371         -0.364         -0.594         -0.443         -0.131         -0.110          0.081         -0.126          0.175          0.353          0.107          0.233         -0.122          0.090          0.307          0.386         -0.251          0.203        -19.969         -0.697         -0.869          0.771          0.681         -0.500          0.122          0.746         -0.673         -0.454        -15.134          0.034         -0.070         -0.397          0.027          0.072          0.292         -0.196          0.188         -0.297          0.438          0.045          0.206          0.498          0.457          0.279          0.314          0.333          0.297          0.211          0.269          0.190          0.179          8.845          0.214          0.160          0.133          0.146          0.169          8.306         -0.056          6.941          7.741          6.188          6.306          0.040          0.061         -0.160         -0.133          8.361         -8.897          7.737          8.308         -0.193         -0.292         -0.345         -0.355         -0.257         -0.274         -0.321         -0.351         -0.468         -0.285         -0.350         -0.475         -0.635         -0.399         -0.418         -0.459         -0.412         -0.099          0.136         -0.503         -0.183         -0.721         -1.714         -0.320          0.174          0.213         -0.398         -0.226         -0.077         -0.904          0.054         -0.150          0.315         -0.271         -1.039         -0.950        -24.209         -0.722         -0.214          0.075         -0.639          1.147         -0.769          2.363          0.250          1.035         -0.781          0.422          1.664          0.803          0.512          0.586          0.636          0.393          0.399          0.398          0.266          0.281          0.311          0.245          0.245          0.014         -8.762          0.077          9.355          7.281         -0.152         -0.008         -0.024          9.778        -11.030       -132.429
       8000.000         10.910         -0.156         -0.359         -0.436          0.129          0.369          0.536          0.101          0.168          0.347          0.402          0.299          0.175          0.239          0.166          8.991         -8.552          8.023         -0.045         -0.107          0.250         -0.236         -0.207         -0.163         -0.419         -0.300         -0.368         -0.380         -0.415         -0.433         -0.568         -0.353         -0.450         -0.506         -1.416         -0.517         -0.443         -0.716         -0.581         -0.137         -0.548         -1.018         -2.033         -1.253         -0.288         -5.672         -1.923         -0.558          0.088        -55.217          0.616          0.984          1.646         -1.168          0.372          0.304          1.104          0.651         -0.746         24.984         -0.630         -0.270         -1.771        -24.144         -0.607         -4.539         -6.500         -0.330          0.520        -79.633         -0.812          0.265          1.375          1.535          0.346          0.625          0.906          0.723          0.876          1.033          0.492          0.576          0.301          0.356          0.312          0.256         -9.927         10.010          0.174          0.157          0.164          0.161          0.152         -0.046         -0.043         -0.061         -0.064          0.061          0.111          0.028          0.025          0.007         -0.050         -0.072         -0.086         -0.132         -0.216          7.786          8.898         -0.239         -0.208         -0.283         -0.139         -0.370         -0.368         -0.295         -0.431         -0.546         -0.449         -0.300         -0.550         -0.547         -0.196         -0.159         -0.049         -0.182          0.071         -0.140         -0.249          0.100         -0.277         -0.044         -0.742          0.477         -0.216          0.122        -23.802         -0.720         -1.026          1.598         -0.910         -3.911          0.041          0.840         -1.187         -0.388        -16.046         -0.046         -0.336         -0.508          0.486          0.029          0.779         -0.025          0.329          0.674          0.506          0.585          0.344          0.617          0.422          0.309          0.304          0.344          0.265          0.193          0.265          0.157          0.185          8.831          0.220          0.160          0.140          0.160          0.131          8.287         -0.029          7.099          7.906          6.484          6.675          0.022          0.065         -0.140         -0.143          8.246         -8.944          8.057          8.537         -0.209         -0.249         -0.236         -0.356         -0.287         -0.289         -0.314         -0.411         -0.486         -0.391         -0.325         -0.460         -0.503         -0.371         -0.217         -0.063         -0.672         -0.357         -0.258         -0.715         -0.403         -0.661         -2.019         -0.576          0.088         -0.076         -0.638          0.015         -0.626          0.555         -0.030         -0.494          0.679         -0.335         -1.295         -1.247        -22.782         -0.641         -2.399         -0.626         -0.169          1.062         -0.484          1.939          0.199          1.191         -0.844          0.438          1.767          1.130          0.509          0.539          0.736          0.419          0.389          0.372          0.256          0.269          0.290          0.250          0.273          0.045         -8.719          0.064          9.068          7.808         -0.155          0.059          0.093          9.595        -10.356       -125.259
      12000.000         11.994         -0.285         -0.460         -0.411         -0.084          0.353          0.501          0.207          0.275          0.381          0.225          0.204          0.235          0.256          0.176          9.628         -9.117          7.986         -0.058         -0.133          0.273         -0.258         -0.175         -0.177         -0.496         -0.281         -0.353         -0.456         -0.469         -0.397         -0.564         -0.641         -0.367         -0.478         -2.148         -0.582         -0.157          0.050         -0.244         -0.126          0.207          0.347         -0.975         -0.454          0.754         -0.966         -0.159          0.382          0.942        -39.006         -0.001          0.190          0.736         -0.883          0.482          0.278          0.548          0.478         -0.764         20.325         -0.677         -0.598         -1.649        -22.470         -0.666         -1.327         -2.583         -1.569         -0.154        -88.347         -0.851          0.325          1.223         -0.100          0.677          0.607          0.778          1.115          1.203          1.379          0.846          0.526          0.387          0.468          0.470          0.350        -11.566         11.840          0.177          0.266          0.234          0.211          0.204          0.072         -0.044         -0.058         -0.137          0.112          0.216          0.083          0.060          0.024         -0.011         -0.087         -0.092         -0.222         -0.219          8.452          9.511         -0.295         -0.341         -0.321         -0.447         -0.463         -0.304         -0.276         -0.546         -0.715         -0.426         -0.159         -0.531         -0.655         -0.137          0.074          0.299          0.189          0.479          0.724          0.259          0.261          0.423          0.309          0.547          0.365          0.054         -0.025        -18.130         -0.707         -0.818          0.529         -0.133         -0.986         -1.166         -0.375         -0.499         -0.956        -18.087         -0.230         -0.974         -1.215          0.056         -0.355          0.681         -0.454          0.178          0.437          2.346         -0.413          0.448          1.041          0.756          0.459          0.445          0.764          0.491          0.358          0.465          0.302          0.309         10.745          0.335          0.215          0.196          0.212          0.248          9.835         -0.006          8.594          9.249          7.009          7.251          0.066          0.087         -0.192         -0.203          9.133        -10.323          8.699          9.280         -0.263         -0.371         -0.270         -0.518         -0.432         -0.468         -0.495         -0.548         -0.760         -0.696         -0.618         -1.101         -1.319         -0.693         -0.297         -1.726         -1.359         -0.983        -11.572         -2.381         -1.118         -0.945         -9.809          0.081          0.807          3.634          1.075         -0.602         -0.726          0.371          0.197         -0.836          0.752          0.096         -1.856         -1.593        -21.439         -0.627         -8.575         -0.694         -0.529          0.991         -5.178         -0.698          0.351          2.112         -4.561          0.631          2.592          1.272          0.629          0.804          1.253          0.383          0.463          0.521          0.286          0.364          0.479          0.304          0.399          0.104         -9.457          0.080          9.304          8.719         -0.197          0.058          0.066         10.599        -11.604       -120.123
      16000.000         11.588         -0.013         -0.310         -0.251         -0.104          0.230          0.945          0.265          0.207          0.303          0.187          0.161          0.194          0.210          0.209          9.200         -8.525          7.459          0.026         -0.081          0.218         -0.034         -0.128         -0.111         -0.411         -0.276         -0.316         -0.358         -0.367         -0.281         -0.449         -0.497         -0.417         -0.442         -1.224         -0.605         -0.661         -0.891         -0.665         -0.015         -0.651         -1.913         -2.044         -1.356         -1.868        -11.316         -2.271          0.781         -1.324        -90.981         -0.107          0.589          1.785         -5.514          0.611         -0.024          1.411          0.832         -0.872         25.282         -0.519         -0.605         -1.496        -23.969         -0.341         -2.040         -2.797         -0.264          0.475        -69.682          0.254          0.588          1.309          1.471          0.623          0.590          0.839          0.571          0.665          0.919          0.476          0.461          0.273          0.308          0.323          0.215         -9.458          9.550          0.133          0.189          0.139          0.139          0.132          0.003         -0.043         -0.039          0.049          0.062          0.094          0.005          0.092          0.034         -0.021         -0.119         -0.082         -0.158         -0.199          7.655          8.248         -0.182         -0.216         -0.232         -0.227         -0.284         -0.320         -0.243         -0.239         -0.544         -0.361         -0.273         -0.349         -0.443         -0.207         -0.092         -0.355         -0.363         -0.145          0.422         -0.071         -0.069          0.455          0.161          0.252         -0.492         -0.640         -0.023        -24.349         -1.093         -2.369          1.948         -1.231         -1.139          0.021          0.817          0.123         -0.144        -15.510          0.146         -0.136         -0.368          0.124         -0.094          0.375         -0.049          0.186         -0.189          0.396          0.463          0.288          0.469          0.350          0.210          0.236          0.444          0.281          0.200          0.259          0.249          0.169          8.716          0.222          0.156          0.131          0.142          0.154          8.154         -0.007          6.514          7.719          6.292          6.393          0.104          0.088         -0.140         -0.125          7.268         -8.585          7.416          7.534         -0.159         -0.223         -0.147         -0.261         -0.229         -0.248         -0.266         -0.309         -0.414         -0.315         -0.280         -0.418         -0.465         -0.374         -0.446         -0.324         -0.718         -0.523         -0.608         -0.642         -0.106         -1.001         -1.392         -0.513          0.210          1.118         -0.313         -0.373         -0.531         -0.057          0.145          0.008          0.063         -0.406         -1.111         -1.797        -27.213         -0.377         -1.878          1.251         -0.177          1.482          1.560          2.728          0.177          1.121          0.628          0.454          1.340          0.843          0.569          0.456          0.644          0.350          0.345          0.347          0.278          0.267          0.282          0.204          0.193         -0.027         -8.313          0.096          9.148          7.279         -0.152          0.046          0.032         10.034        -11.157       -156.340
      20000.000         10.813         -0.149         -0.287         -0.255         -0.018          0.245          0.740          0.227          0.229          0.312          0.159          0.063          0.183          0.232          0.176          8.634         -8.105          7.364         -0.027         -0.084          0.287         -0.169         -0.157         -0.114         -0.410         -0.195         -0.274         -0.319         -0.342         -0.460         -0.476         -0.444         -0.381         -0.474         -1.207         -0.472         -0.623         -0.751         -0.681         -0.100         -0.616         -1.717         -1.949         -1.037         -1.896         -9.863         -2.344         -0.219         -6.093        -97.118          0.202          0.523          1.705         -2.385         -0.114         -0.204          0.931          0.692         -1.144         25.858         -0.910         -0.229         -0.855        -25.808         -0.299         -3.403         -2.946         -0.088          0.743        -72.489          0.307          0.598          1.132          1.136          0.535          0.513          0.702          0.565          0.722          0.926          0.440          0.367          0.252          0.283          0.297          0.232         -9.407          9.432          0.129          0.158          0.148          0.138          0.140         -0.017         -0.041         -0.038         -0.115          0.030          0.005          0.081          0.011          0.020         -0.041          0.009         -0.106         -0.193         -0.195          7.557          8.269         -0.191         -0.222         -0.228         -0.157         -0.300         -0.298         -0.229         -0.268         -0.583         -0.370         -0.271         -0.491         -0.462         -0.173         -0.095         -0.279         -0.418          0.062          0.262         -0.029          0.002          0.439          0.379          1.332          0.541         -0.687         -0.083        -20.606         -1.186         -2.192          1.767         -0.686         -1.264         -0.008          0.673         -1.396         -0.296        -15.404          0.111         -0.009         -0.324          0.151         -0.142          0.412         -0.126          0.248          0.008          0.393          0.462          0.235          0.510          0.409          0.286          0.259          0.387          0.281          0.203          0.260          0.285          0.189          8.733          0.192          0.172          0.133          0.143          0.158          7.950          0.053          6.720          7.590          6.048          6.189          0.069          0.072         -0.116         -0.127          6.854         -8.435          7.195          7.391         -0.147         -0.232         -0.145         -0.277         -0.210         -0.216         -0.248         -0.290         -0.343         -0.276         -0.297         -0.379         -0.506         -0.347         -0.480         -0.794         -0.386         -0.282         -0.102         -0.559         -0.268         -0.693         -0.598         -0.349          0.219         -0.608         -0.414         -0.331         -0.530         -0.067          0.004         -0.207         -0.472         -0.654         -0.563         -0.979        -26.322         -0.341         -0.912          0.734         -0.045          1.145          0.680          1.862          0.199          0.717          1.713          0.557          1.094          0.833          0.515          0.442          0.387          0.339          0.326          0.342          0.263          0.255          0.244          0.210          0.206         -0.047         -8.165          0.054          9.287          7.319         -0.114          0.090          0.021          8.695        -11.209       -168.987
      24000.000         10.933          0.017          0.013         -0.266          0.068          0.290          0.919          0.273          0.212          0.296          0.440          0.276          0.204          0.243          0.213          9.141         -8.276          7.334         -0.016         -0.069          0.246         -0.166         -0.142         -0.090         -0.295         -0.253         -0.286         -0.313         -0.376         -0.478         -0.475         -0.468         -0.477         -0.518         -1.123         -0.550         -0.687         -0.779         -0.410         -0.099         -0.739         -1.757         -1.706         -0.992         -2.140         -5.586         -3.204         -0.755          0.036        -91.564          0.071          1.351          1.832         -2.908          0.513          0.083          1.347          0.940         -1.280         25.054         -0.490          0.071         -1.753        -23.122         -0.344         -3.409         -2.680          0.224          0.665        -73.196          0.514          0.727          1.197          1.218          0.661          0.558          1.009          0.585          0.670          0.905          0.507          0.471          0.266          0.285          0.362          0.233         -9.624          9.679          0.132          0.168          0.149          0.152          0.147         -0.047         -0.055         -0.065          0.003          0.050         -0.061          0.009          0.017          0.059         -0.008          0.034         -0.125         -0.167         -0.189          7.563          8.257         -0.185         -0.231         -0.229         -0.101         -0.322         -0.330         -0.272         -0.344         -0.525         -0.269         -0.241         -0.360         -0.373         -0.060          0.026         -0.009         -0.167          0.089          0.408          0.051          0.208          0.547          0.437          0.571          0.051         -0.552         -0.091        -24.874         -1.627         -2.573          0.815          1.418         -0.953          0.404          0.870         -0.156         -0.337        -14.563          0.078         -0.130         -0.277          0.108         -0.360          0.368         -0.072          0.320         -0.132          0.547          0.130          0.232          0.491          0.378          0.267          0.263          0.359          0.251          0.160          0.224          0.179          0.160          8.785          0.216          0.112          0.137          0.141          0.140          8.125         -0.025          6.895          7.739          6.336          6.056          0.058          0.060         -0.128         -0.113          7.922         -8.634          7.333          7.578         -0.156         -0.239          0.035         -0.240         -0.225         -0.166         -0.223         -0.313         -0.415         -0.361         -0.317         -0.417         -0.465         -0.279         -0.502         -0.223         -0.455         -0.217         -0.239         -0.392         -0.190         -0.987         -1.584         -0.201          0.227         -0.772         -0.468         -0.047         -0.535         -0.359          0.084         -0.030         -0.162         -0.415         -1.192         -1.473        -29.227         -0.848         -1.378          0.870         -0.203          1.352          0.587          2.821          0.303          0.978         -0.782          0.541          1.211          0.777          0.516          0.440          0.424          0.353          0.387          0.355          0.270          0.260          0.258          0.208          0.283         -0.007         -8.498          0.038          8.289          7.490         -0.126          0.026         -0.041          9.457        -11.128       -153.919