# Time	LEU-41	ALA-42	ILE-43	VAL-44	PHE-45	GLY-46	ASN-47	GLY-48	LEU-49	VAL-50	CYS-51	MET-52	ALA-53	VAL-54	LEU-55	LYS-56	GLU-57	ARG-58	ALA-59	LEU-60	GLN-61	THR-62	THR-63	THR-64	ASN-65	TYR-66	LEU-67	VAL-68	VAL-69	SER-70	LEU-71	ALA-72	VAL-73	ALA-74	ASH-75	LEU-76	LEU-77	VAL-78	ALA-79	THR-80	LEU-81	VAL-82	MET-83	PRO-84	TRP-85	VAL-86	VAL-87	TYR-88	LEU-89	GLU-90	VAL-91	THR-92	GLY-93	GLY-94	VAL-95	TRP-96	ASN-97	PHE-98	SER-99	ARG-100	ILE-101	CYS-102	CYX-103	ASP-104	VAL-105	PHE-106	VAL-107	THR-108	LEU-109	ASP-110	VAL-111	MET-112	MET-113	CYS-114	THR-115	ALA-116	SER-117	ILE-118	TRP-119	ASN-120	LEU-121	CYS-122	ALA-123	ILE-124	SER-125	ILE-126	ASP-127	ARG-128	TYR-129	THR-130	ALA-131	VAL-132	VAL-133	MET-134	PRO-135	VAL-136	HID-137	TYR-138	GLN-139	HID-140	GLY-141	THR-142	GLY-143	GLN-144	SER-145	SER-146	CYS-147	ARG-148	ARG-149	VAL-150	ALA-151	LEU-152	MET-153	ILE-154	THR-155	ALA-156	VAL-157	TRP-158	VAL-159	LEU-160	ALA-161	PHE-162	ALA-163	VAL-164	SER-165	CYS-166	PRO-167	LEU-168	LEU-169	PHE-170	GLY-171	PHE-172	ASN-173	THR-174	THR-175	GLY-176	ASP-177	PRO-178	THR-179	VAL-180	CYX-181	SER-182	ILE-183	SER-184	ASN-185	PRO-186	ASP-187	PHE-188	VAL-189	ILE-190	TYR-191	SER-192	SER-193	VAL-194	VAL-195	SER-196	PHE-197	TYR-198	LEU-199	PRO-200	PHE-201	GLY-202	VAL-203	THR-204	VAL-205	LEU-206	VAL-207	TYR-208	ALA-209	ARG-210	ILE-211	TYR-212	VAL-213	VAL-214	LEU-215	LYS-216	GLN-217	ARG-218	ARG-219	ARG-220	LYS-221	GLY-319	VAL-320	PRO-321	LEU-322	ARG-323	GLU-324	LYS-325	LYS-326	ALA-327	THR-328	GLN-329	MET-330	VAL-331	ALA-332	ILE-333	VAL-334	LEU-335	GLY-336	ALA-337	PHE-338	ILE-339	VAL-340	CYS-341	TRP-342	LEU-343	PRO-344	PHE-345	PHE-346	LEU-347	THR-348	HIE-349	VAL-350	LEU-351	ASN-352	THR-353	HID-354	CYX-355	GLN-356	THR-357	CYX-358	HID-359	VAL-360	SER-361	PRO-362	GLU-363	LEU-364	TYR-365	SER-366	ALA-367	THR-368	THR-369	TRP-370	LEU-371	GLY-372	TYR-373	VAL-374	ASN-375	SER-376	ALA-377	LEU-378	ASN-379	PRO-380	VAL-381	ILE-382	TYR-383	THR-384	THR-385	PHE-386	ASN-387	ILE-388	GLU-389	PHE-390	ARG-391	LYS-392	ALA-393	PHE-394	LEU-395	LYS-396	ILE-397	DPN-14602	
          0.000         11.352         -0.299         -0.272         -0.332         -0.106          0.237          0.582          0.193          0.233          0.339          0.220          0.043          0.222          0.223          0.164          8.779         -8.476          8.278          0.019         -0.088          0.307         -0.242         -0.247         -0.219         -0.455         -0.281         -0.328         -0.363         -0.391         -0.537         -0.485         -0.407         -0.462         -0.524         -0.251         -0.522         -0.593         -0.854         -0.501         -0.527         -1.079         -1.899         -1.520         -1.602         -3.256        -11.315         -2.255          0.323         -0.534        -95.920          0.017          1.628          2.574        -13.257         -3.648         -2.878         -1.034         -0.836         -1.686         28.760         -0.765          0.063         -2.189        -26.164         -0.207         -4.621         -1.589          0.364          0.901        -74.258          0.363          1.082          1.423          1.526          0.483          0.562          0.835          0.528          0.700          0.975          0.397          0.375          0.270          0.304          0.267          0.202         -9.210          9.492          0.191          0.170          0.144          0.147          0.150         -0.049         -0.058         -0.034         -0.153          0.032          0.066          0.139          0.054          0.065         -0.031          0.140         -0.138         -0.227         -0.256          7.874          8.803         -0.186         -0.239         -0.258         -0.287         -0.298         -0.348         -0.256         -0.312         -0.576         -0.452         -0.328         -0.507         -0.524         -0.296         -0.063         -0.335         -0.372          0.069          0.034         -0.106          0.202         -0.245         -0.022         -1.186          0.499          0.412          0.104        -25.847         -1.541         -4.156          1.265         -3.447          2.126         -0.667         -0.187         -0.274         -0.454        -15.405          0.246          0.161         -0.195          0.389         -0.001          0.672         -0.035          0.325          0.213          0.402          0.518          0.322          0.441          0.349          0.198          0.262          0.387          0.222          0.173          0.227          0.188          0.148          8.251          0.193          0.133          0.098          0.130          0.155          8.292          0.084          7.043          7.554          7.221          6.357          0.014          0.079         -0.112         -0.134          8.241         -8.911          7.588          8.479         -0.199         -0.274         -0.088         -0.165         -0.295         -0.313         -0.336         -0.398         -0.442         -0.363         -0.452         -0.550         -0.682         -0.462         -0.482         -0.757         -0.444          0.020          0.188          0.116          0.069          0.970          2.040         -0.067          0.339          1.942          0.060         -0.066         -0.111          0.057         -0.823          0.194          0.216         -0.529         -1.273         -1.865        -32.255         -0.447          2.116          0.892         -0.720          0.202         -1.093          1.374          0.425          1.320          0.170          0.484          1.337          0.869          0.468          0.452          0.554          0.361          0.328          0.337          0.332          0.305          0.194          0.187          0.081         -0.104         -8.661         -0.037          9.313          7.911         -0.053         -0.127         -0.101          9.356        -10.330       -184.729
       4000.000         11.305         -0.279         -0.168         -0.280         -0.061          0.260          0.456          0.184          0.230          0.360          0.138          0.171          0.223          0.217          0.163          8.542         -8.432          8.242         -0.007         -0.087          0.299         -0.202         -0.212         -0.306         -0.487         -0.309         -0.351         -0.393         -0.373         -0.434         -0.561         -0.481         -0.490         -0.643         -0.367         -0.600         -0.644         -0.730         -0.509         -0.065         -0.454         -1.037         -2.207         -0.926         -0.175         -7.398         -1.261          0.776         -0.740        -76.292          0.267          0.806          0.651         -8.560          1.589         -1.789         -1.066         -0.441         -1.396         29.135         -0.905         -0.148         -2.042        -25.580         -0.472         -3.680         -2.887          0.008          0.595        -79.791          0.004          0.727          1.645          1.664          0.691          0.599          0.724          0.639          0.741          0.222          0.469          0.518          0.302          0.321          0.323          0.227         -9.685          9.985          0.222          0.182          0.160          0.151          0.144         -0.097         -0.032         -0.010         -0.124          0.081         -0.106          0.129          0.056          0.072          0.002         -0.117         -0.144         -0.195         -0.204          8.020          9.174         -0.235         -0.265         -0.309         -0.180         -0.331         -0.366         -0.283         -0.277         -0.593         -0.351         -0.161         -0.323         -0.437         -0.221         -0.055         -0.892         -0.280          0.052          0.103          0.084          0.148         -0.231         -0.020          0.386          0.118         -0.484          0.062        -23.284         -1.324         -2.415          1.652          2.905          3.163         -0.572          0.091         -0.553         -0.465        -15.853          0.188          0.024         -0.243         -0.035          0.009          0.659          0.164          0.361         -0.172          0.243          0.170          0.282          0.446          0.382          0.212          0.262          0.366          0.230          0.206          0.260          0.330          0.149          8.464          0.202          0.081          0.116          0.143          0.168          8.519          0.129          6.978          7.803          7.526          6.492          0.033          0.057         -0.146         -0.142          8.359         -8.978          7.871          8.729         -0.227         -0.301         -0.239         -0.372         -0.269         -0.260         -0.330         -0.386         -0.549         -0.466         -0.507         -0.686         -0.732         -0.615         -0.881         -1.306         -0.686         -0.034          0.398         -0.312         -0.049          1.277          1.339         -0.001          0.412          1.524          0.014          0.895          0.121         -0.550         -1.083          0.364          0.372         -0.906         -1.765         -2.517        -36.552         -0.722          2.878         -1.935         -0.360          0.155         -1.070          2.722          0.790          1.830         -0.854          0.493          1.485          0.769          0.465          0.530          0.657          0.381          0.368          0.371          0.333          0.305          0.307          0.197          0.140         -0.058         -8.586          0.058          9.561          8.098          0.011         -0.085         -0.010          9.147        -10.648       -147.858
       8000.000         11.487         -0.247         -0.121         -0.323         -0.094          0.287          0.658          0.159          0.234          0.309          0.164          0.141          0.210          0.223          0.195          8.917         -8.256          8.178         -0.037         -0.041          0.247         -0.218         -0.218         -0.272         -0.441         -0.234         -0.326         -0.375         -0.369         -0.421         -0.473         -0.462         -0.463         -0.571         -0.428         -0.543         -0.648         -0.994         -0.665         -0.213         -0.612         -1.810         -2.582         -1.418         -1.856         -8.974         -1.792          0.307          1.109       -100.201          0.333          1.147          1.068        -12.815         -2.523         -3.122         -0.817         -0.654         -1.687         26.736         -0.656         -0.115         -1.703        -24.262         -0.443         -3.110         -3.228          0.187          0.480        -67.749         -0.385          0.715          1.362          1.543          0.755          0.555          0.674          0.509          0.666          0.177          0.415          0.439          0.286          0.288          0.229          0.217         -9.097          9.095          0.209          0.167          0.154          0.149          0.153         -0.060         -0.063         -0.016         -0.131          0.051         -0.011          0.110          0.075         -0.053         -0.004          0.059         -0.140         -0.127         -0.233          7.671          8.726         -0.189         -0.239         -0.241         -0.121         -0.276         -0.306         -0.238         -0.317         -0.523         -0.262         -0.223         -0.378         -0.487         -0.136          0.018         -0.629         -0.450         -0.072          0.640          0.010          0.070          0.071         -0.029         -0.007          0.200         -0.295         -0.374        -22.925         -1.398         -3.573          1.507         -2.409         -0.950         -0.301          0.719         -0.257         -0.056        -14.675          0.179          0.048         -0.014          0.290         -0.025          0.492         -0.119          0.187          0.204          0.287          0.418          0.296          0.440          0.363          0.218          0.256          0.269          0.192          0.164          0.227          0.194          0.145          8.017          0.188          0.079          0.107          0.126          0.149          8.492          0.036          6.457          7.417          7.146          6.374          0.028          0.024         -0.130         -0.137          8.453         -8.225          7.483          8.231         -0.191         -0.190         -0.084         -0.389         -0.286         -0.265         -0.266         -0.373         -0.480         -0.370         -0.425         -0.505         -0.661         -0.412         -0.628         -0.881         -0.599         -0.282         -0.457         -0.696         -0.054          0.476         -0.651         -0.216          0.333          1.515         -0.111          0.160          0.115         -0.724         -1.249          0.215          0.610         -1.285         -1.176         -2.808        -41.353         -0.322         -0.217          1.152         -0.065          0.463          0.219          2.931          0.616          1.502         -0.859          0.614          1.352          0.754          0.482          0.461          0.547          0.356          0.350          0.334          0.403          0.305          0.261          0.192          0.120         -0.075         -8.712          0.029          9.491          7.983         -0.045         -0.090         -0.111          9.499        -10.670       -191.137
      12000.000         11.482         -0.197          0.025         -0.106         -0.030          0.264          0.410          0.225          0.209          0.288          0.379          0.160          0.211          0.209          0.197          8.877         -8.100          7.844          0.009         -0.070          0.236         -0.212         -0.171         -0.247         -0.397         -0.249         -0.290         -0.337         -0.348         -0.330         -0.470         -0.428         -0.355         -0.436         -0.253         -0.450         -0.430         -0.683         -0.499         -0.085         -0.563         -1.651         -1.387         -1.213         -0.595         -8.907         -2.190         -0.701         -2.070        -99.635          0.043          0.212          1.748        -13.889         -1.995         -3.296         -0.101         -0.227         -1.544         28.139         -0.633          0.041         -2.013        -25.168         -0.107         -3.915         -3.356          0.123          0.667        -73.387          0.130          0.376          1.194          1.675          0.843          0.523          1.007          0.559          0.602          0.196          0.418          0.328          0.273          0.283          0.249          0.209         -9.128          9.335          0.182          0.161          0.146          0.153          0.137         -0.081         -0.049         -0.009         -0.107          0.052          0.017          0.072          0.035         -0.078         -0.030          0.083         -0.139         -0.198         -0.232          7.541          8.711         -0.207         -0.213         -0.247         -0.249         -0.266         -0.324         -0.256         -0.299         -0.476         -0.286         -0.230         -0.301         -0.473         -0.193         -0.177         -0.903         -0.336          0.129          0.342          0.127          0.133          0.472          0.246         -0.062          0.559          0.083         -0.128        -27.929         -1.190         -3.947          1.974         -0.566          0.464         -0.217         -0.270         -0.208         -0.201        -15.560          0.164          0.096         -0.215          0.418         -0.032          0.448         -0.022          0.307          0.268          0.406          0.144          0.232          0.331          0.317          0.224          0.265          0.263          0.227          0.160          0.206          0.142          0.116          8.011          0.198          0.054          0.109          0.129          0.141          7.567          0.028          6.150          7.332          7.183          6.118          0.022          0.082         -0.095         -0.127          8.598         -8.589          7.461          8.408         -0.194         -0.220         -0.244         -0.196         -0.256         -0.272         -0.323         -0.384         -0.469         -0.388         -0.409         -0.524         -0.686         -0.504         -0.314         -1.000         -0.644         -0.153         -0.286         -0.517         -0.181          0.129         -1.193         -0.131          0.422          1.155          0.104          1.052          0.978         -1.532         -0.999         -0.361          0.303         -2.083         -1.171         -1.418        -35.249          0.119          1.078         -2.107          0.090          0.341         -0.251          2.228          0.527          1.372          0.232          0.492          1.534          0.801          0.495          0.520          0.572          0.345          0.346          0.319          0.342          0.279          0.265          0.187          0.105         -0.100         -8.576          0.005          9.172          7.989         -0.050         -0.072         -0.020          8.730        -10.177       -195.244
      16000.000         12.735         -0.377         -0.029         -0.262          0.109          0.407          0.741          0.210          0.272          0.347          0.105          0.144          0.223          0.238          0.197          8.851         -8.329          8.346         -0.014         -0.074          0.262         -0.169         -0.203         -0.258         -0.458         -0.298         -0.353         -0.366         -0.318         -0.400         -0.537         -0.518         -0.369         -0.692         -0.509         -0.744         -0.640         -0.884         -0.522         -0.241         -0.667         -1.811         -1.331         -1.570         -0.143         -9.857         -2.394         -0.013          2.201        -95.751          0.068          0.965          1.361         -7.190         -0.398         -1.169         -0.758         -0.590         -1.174         25.168         -0.657         -0.114         -1.782        -23.530         -0.382         -3.169         -4.060          0.084          0.671        -70.828         -0.269          0.370          1.503          1.162          0.756          0.573          0.797          0.455          0.561          0.371          0.415          0.455          0.282          0.306          0.258          0.205         -9.408          9.804          0.158          0.169          0.145          0.140          0.152         -0.079         -0.064         -0.044         -0.141         -0.113         -0.194          0.072          0.038         -0.004         -0.003          0.022         -0.141         -0.182         -0.252          7.753          9.015         -0.192         -0.257         -0.254         -0.128         -0.275         -0.269         -0.261         -0.261         -0.577         -0.351         -0.250         -0.359         -0.532         -0.215          0.026         -0.669         -0.091          0.053          0.229         -0.002          0.136          0.388          0.177          0.133          0.030         -0.148         -0.247        -25.703         -1.137         -3.246          0.793         -1.758         -0.631         -0.693         -0.085         -0.373         -0.268        -14.824          0.281          0.184         -0.068          0.408          0.013          0.446         -0.089          0.198          0.062          0.307          0.517          0.218          0.451          0.288          0.217          0.261          0.240          0.203          0.191          0.214          0.304          0.142          8.117          0.189          0.095          0.083          0.128          0.129          7.804         -0.079          6.265          7.435          7.295          6.412          0.016          0.053         -0.123         -0.132          8.007         -9.003          7.669          8.710         -0.213         -0.278         -0.102         -0.196         -0.336         -0.284         -0.345         -0.413         -0.518         -0.433         -0.439         -0.581         -0.734         -0.545         -0.810         -1.034         -0.451         -0.230         -0.483         -0.179          0.116          1.060          1.459          0.078          0.300          1.154          0.154          0.716          0.598         -0.395         -0.523         -0.723         -0.072         -0.553         -2.016         -3.668        -41.256         -1.006         -0.749          0.342         -0.099          0.208          0.367          2.010          0.698          1.563         -0.636          0.553          1.562          0.798          0.611          0.512          0.598          0.412          0.377          0.322          0.340          0.336          0.128          0.207          0.087         -0.082         -8.854         -0.006          9.810          8.370         -0.012         -0.043         -0.026          9.099        -10.913       -181.479
      20000.000         11.777         -0.274         -0.123         -0.359         -0.237          0.235          0.400          0.202          0.225          0.318          0.134          0.147          0.210          0.224          0.185          8.775         -8.370          7.659         -0.038         -0.043          0.260         -0.236         -0.235         -0.255         -0.453         -0.274         -0.334         -0.376         -0.326         -0.354         -0.497         -0.483         -0.487         -0.611         -0.342         -0.724         -0.525         -0.817          0.166          0.084         -0.785         -1.728         -2.613         -1.175         -0.290         -9.725         -2.049          0.459         -0.700        -72.844          0.009          0.620          1.541        -14.227         -2.579         -2.833         -0.704         -0.694         -1.361         25.690         -0.876         -0.162         -1.802        -23.812         -0.246         -4.309         -3.779          0.132          0.777        -69.790          0.139          0.741          1.491          1.489          0.732          0.618          0.771          0.550          0.623          0.223          0.430          0.394          0.290          0.316          0.292          0.211         -9.303          9.581          0.179          0.172          0.157          0.160          0.129          0.017         -0.058         -0.038         -0.126         -0.109          0.004          0.080          0.075         -0.029         -0.001          0.001         -0.076         -0.240         -0.254          7.978          8.916         -0.227         -0.252         -0.275         -0.153         -0.272         -0.364         -0.205         -0.242         -0.552         -0.372         -0.219         -0.347         -0.469         -0.188         -0.013         -0.540         -0.340         -0.038          0.393          0.093          0.142         -0.077         -0.157         -0.181          0.297         -0.047         -0.118        -25.443         -1.204         -3.335          1.235         -2.964         -0.245         -0.247          0.922          0.003         -0.254        -14.737          0.173          0.028         -0.080          0.362         -0.375          0.531         -0.061          0.236          0.259          0.373          0.548          0.275          0.421          0.291          0.177          0.256          0.182          0.214          0.166          0.230          0.195          0.126          8.212          0.195          0.070          0.104          0.129          0.140          7.629          0.152          6.444          7.473          7.311          6.249         -0.025          0.054         -0.102         -0.135          7.958         -8.798          7.992          8.410         -0.204         -0.266         -0.321         -0.395         -0.308         -0.280         -0.281         -0.372         -0.526         -0.423         -0.433         -0.557         -0.647         -0.456         -0.579         -0.923         -0.583          0.056          0.029         -0.135          0.077          0.633          1.177         -0.226          0.368          0.957         -0.114          0.033          0.545         -0.485         -0.427         -0.216          0.056          0.305         -2.021         -6.159        -54.917         -0.372          2.566        -10.493         -0.109          1.801         -1.558          4.510          0.681          1.423          0.007          0.693          1.724          0.972          0.562          0.550          0.776          0.362          0.365          0.330          0.372          0.293          0.204          0.213         -0.178         -0.060         -8.795          0.029          9.751          8.043         -0.025         -0.072         -0.091          9.090        -10.881       -191.445
      24000.000         11.231         -0.242         -0.107         -0.141         -0.096          0.265          0.619          0.139          0.194          0.294          0.148          0.119          0.180          0.206          0.139          8.631         -8.333          7.948         -0.006         -0.110          0.276         -0.226         -0.214         -0.229         -0.435         -0.257         -0.314         -0.356         -0.371         -0.433         -0.484         -0.435         -0.375         -0.628         -0.321         -0.479         -0.447         -0.663         -0.411         -0.371         -0.565         -1.494         -1.288         -0.989         -1.603         -9.534         -2.231          0.067          0.232        -59.202          0.339          0.278          1.988        -14.660         -0.828         -1.890         -1.198         -0.855         -1.862         29.677         -0.664          0.320         -1.751        -26.168         -0.168         -3.096         -4.101          0.070          0.997        -73.701          0.153          0.672          1.409          1.816          0.934          0.576          0.765          0.543          0.678          0.555          0.426          0.413          0.252          0.308          0.245          0.203         -9.273          9.522          0.145          0.164          0.152          0.133          0.134         -0.088         -0.054         -0.045         -0.140          0.046         -0.005          0.080          0.038         -0.103          0.015         -0.038         -0.150         -0.213         -0.254          7.717          8.818         -0.207         -0.239         -0.268         -0.135         -0.296         -0.344         -0.255         -0.268         -0.543         -0.293         -0.283         -0.394         -0.493         -0.209         -0.136         -0.732         -0.664          0.019         -0.032          0.073         -0.676         -0.541         -0.058          0.560          0.619          0.953          0.001        -25.005         -0.797         -2.133          2.408          4.229          2.389         -0.754          0.718         -0.460         -0.451        -16.165          0.171          0.392         -0.086          0.579          0.097          0.705         -0.008          0.237          0.128          0.265          0.378          0.326          0.468          0.363          0.224          0.252          0.243          0.202          0.186          0.255          0.180          0.148          8.162          0.198          0.081          0.123          0.137          0.139          7.851          0.015          6.252          7.439          7.325          6.121          0.013          0.061         -0.126         -0.151          8.020         -8.819          7.546          8.484         -0.200         -0.166         -0.143         -0.228         -0.318         -0.293         -0.325         -0.431         -0.506         -0.404         -0.376         -0.520         -0.689         -0.467         -0.454         -1.230         -0.502         -0.147         -0.062         -0.495         -0.111          0.764          0.370          0.008          0.348          1.683          0.014          0.395          0.663         -0.843         -0.862         -0.031          0.663         -0.820         -1.397         -1.231        -37.694         -0.347         -1.987         -1.741         -0.484         -0.075         -1.783          1.885          0.525          1.352         -0.043          0.370          1.541          0.780          0.499          0.463          0.683          0.353          0.329          0.346          0.390          0.272          0.229          0.198          0.120         -0.102         -8.491          0.001          9.538          8.045         -0.101         -0.081         -0.051          8.890        -10.544       -144.771