# Time	LEU-41	ALA-42	ILE-43	VAL-44	PHE-45	GLY-46	ASN-47	GLY-48	LEU-49	VAL-50	CYS-51	MET-52	ALA-53	VAL-54	LEU-55	LYS-56	GLU-57	ARG-58	ALA-59	LEU-60	GLN-61	THR-62	THR-63	THR-64	ASN-65	TYR-66	LEU-67	VAL-68	VAL-69	SER-70	LEU-71	ALA-72	VAL-73	ALA-74	ASH-75	LEU-76	LEU-77	VAL-78	ALA-79	THR-80	LEU-81	VAL-82	MET-83	PRO-84	TRP-85	VAL-86	VAL-87	TYR-88	LEU-89	GLU-90	VAL-91	THR-92	GLY-93	GLY-94	VAL-95	TRP-96	ASN-97	PHE-98	SER-99	ARG-100	ILE-101	CYS-102	CYX-103	ASP-104	VAL-105	PHE-106	VAL-107	THR-108	LEU-109	ASP-110	VAL-111	MET-112	MET-113	CYS-114	THR-115	ALA-116	SER-117	ILE-118	TRP-119	ASN-120	LEU-121	CYS-122	ALA-123	ILE-124	SER-125	ILE-126	ASP-127	ARG-128	TYR-129	THR-130	ALA-131	VAL-132	VAL-133	MET-134	PRO-135	VAL-136	HID-137	TYR-138	GLN-139	HID-140	GLY-141	THR-142	GLY-143	GLN-144	SER-145	SER-146	CYS-147	ARG-148	ARG-149	VAL-150	ALA-151	LEU-152	MET-153	ILE-154	THR-155	ALA-156	VAL-157	TRP-158	VAL-159	LEU-160	ALA-161	PHE-162	ALA-163	VAL-164	SER-165	CYS-166	PRO-167	LEU-168	LEU-169	PHE-170	GLY-171	PHE-172	ASN-173	THR-174	THR-175	GLY-176	ASP-177	PRO-178	THR-179	VAL-180	CYX-181	SER-182	ILE-183	SER-184	ASN-185	PRO-186	ASP-187	PHE-188	VAL-189	ILE-190	TYR-191	SER-192	SER-193	VAL-194	VAL-195	SER-196	PHE-197	TYR-198	LEU-199	PRO-200	PHE-201	GLY-202	VAL-203	THR-204	VAL-205	LEU-206	VAL-207	TYR-208	ALA-209	ARG-210	ILE-211	TYR-212	VAL-213	VAL-214	LEU-215	LYS-216	GLN-217	ARG-218	ARG-219	ARG-220	LYS-221	GLY-319	VAL-320	PRO-321	LEU-322	ARG-323	GLU-324	LYS-325	LYS-326	ALA-327	THR-328	GLN-329	MET-330	VAL-331	ALA-332	ILE-333	VAL-334	LEU-335	GLY-336	ALA-337	PHE-338	ILE-339	VAL-340	CYS-341	TRP-342	LEU-343	PRO-344	PHE-345	PHE-346	LEU-347	THR-348	HIE-349	VAL-350	LEU-351	ASN-352	THR-353	HID-354	CYX-355	GLN-356	THR-357	CYX-358	HID-359	VAL-360	SER-361	PRO-362	GLU-363	LEU-364	TYR-365	SER-366	ALA-367	THR-368	THR-369	TRP-370	LEU-371	GLY-372	TYR-373	VAL-374	ASN-375	SER-376	ALA-377	LEU-378	ASN-379	PRO-380	VAL-381	ILE-382	TYR-383	THR-384	THR-385	PHE-386	ASN-387	ILE-388	GLU-389	PHE-390	ARG-391	LYS-392	ALA-393	PHE-394	LEU-395	LYS-396	ILE-397	DPN-14602	
          0.000         -0.197         -0.019          0.026          0.075          0.049         -0.026         -0.092         -0.020         -0.027         -0.061         -0.029         -0.009         -0.033         -0.034         -0.017         -0.132          0.248         -0.159          0.000          0.016         -0.029          0.031          0.031          0.035          0.074          0.048          0.064          0.070          0.085          0.138          0.106          0.103          0.123          0.177          0.094          0.136          0.139          0.220          0.160          0.143          0.292          0.186          0.319          0.595          0.799          1.898          0.576          0.302          0.019         39.813          0.040         -0.536         -1.003          4.003          1.710          0.714          0.163          0.279          0.339         -3.497          0.130         -0.040          0.163          3.393          0.122          0.899          0.221         -0.150         -0.290         24.473         -0.132         -0.318         -0.420         -0.257         -0.172         -0.122         -0.158         -0.085         -0.106         -0.193         -0.073         -0.073         -0.052         -0.056         -0.050         -0.035          0.380         -0.431         -0.017         -0.018         -0.021         -0.016         -0.013          0.001          0.004          0.003          0.008         -0.010          0.001         -0.004         -0.006         -0.010         -0.000         -0.007          0.013          0.037          0.030         -0.071         -0.274          0.038          0.051          0.052          0.063          0.072          0.067          0.074          0.065          0.137          0.113          0.056          0.095          0.088          0.059         -0.029         -0.031          0.049         -0.012         -0.011         -0.021         -0.024          0.027         -0.031          0.066         -0.090         -0.131          0.013          2.774          0.241          0.540          0.010          1.457          0.233         -0.059         -0.122         -0.017          0.065          0.716         -0.029          0.011          0.029         -0.039         -0.022          0.052          0.016         -0.023         -0.028         -0.037         -0.036         -0.045         -0.071         -0.053         -0.041         -0.054         -0.064         -0.041         -0.023         -0.041         -0.029         -0.019         -0.146         -0.026          0.002         -0.009         -0.013         -0.013         -0.068          0.001         -0.054         -0.124         -0.113         -0.031         -0.001         -0.006          0.013          0.016         -0.196          0.312         -0.109         -0.198          0.033          0.045          0.041          0.026          0.053          0.066          0.073          0.077          0.084          0.080          0.106          0.103          0.110          0.102          0.103         -0.063          0.006         -0.069         -0.081         -0.024         -0.082         -0.168         -0.149         -0.062         -0.070         -0.094         -0.056         -0.006          0.008         -0.007         -0.026         -0.019         -0.007         -0.096          0.229          0.618          2.724          0.225          0.435         -1.695          0.280         -0.075         -0.632         -0.595         -0.071         -0.274         -0.078         -0.152         -0.322         -0.236         -0.100         -0.121         -0.123         -0.048         -0.044         -0.064         -0.053         -0.038         -0.039         -0.030         -0.023          0.010          0.263         -0.007         -0.227         -0.115         -0.004          0.013         -0.008         -0.165          0.283        145.975
       4000.000         -0.249         -0.016          0.045          0.095          0.038         -0.028         -0.080         -0.025         -0.032         -0.081         -0.017         -0.039         -0.041         -0.038         -0.017         -0.191          0.261         -0.175         -0.003          0.017         -0.034          0.031          0.026          0.052          0.102          0.061          0.074          0.083          0.094          0.132          0.132          0.131          0.158          0.239          0.151          0.205          0.205          0.242          0.215          0.042          0.149         -0.025          0.640          0.369          0.302          0.782          0.397         -0.010         -0.284         37.374         -0.108         -0.419         -0.430          4.790          1.374          0.652         -0.057          0.155          0.173         -2.507          0.098          0.040          0.081          2.468          0.176          0.959          0.486         -0.068         -0.260         27.168          0.138         -0.248         -0.423         -0.402         -0.195         -0.148         -0.159         -0.101         -0.106         -0.060         -0.095         -0.105         -0.063         -0.064         -0.061         -0.043          0.477         -0.549         -0.025         -0.024         -0.023         -0.020         -0.016          0.004          0.003          0.002          0.005         -0.017          0.006         -0.004         -0.007         -0.010         -0.003          0.007          0.015          0.031          0.026         -0.090         -0.340          0.046          0.060          0.066          0.050          0.080          0.069          0.083          0.052          0.118          0.074          0.011          0.018          0.042          0.031         -0.022          0.073          0.019         -0.025         -0.037         -0.047         -0.024          0.030         -0.027         -0.034         -0.044         -0.014          0.031          1.639          0.118         -0.148          0.083          0.753         -0.287          0.013         -0.084          0.121          0.071          0.924         -0.030         -0.030          0.030          0.049         -0.005          0.026          0.006         -0.005          0.032         -0.020         -0.013         -0.038         -0.072         -0.068         -0.048         -0.061         -0.069         -0.047         -0.035         -0.053         -0.063         -0.021         -0.181         -0.031         -0.005         -0.010         -0.017         -0.018         -0.104         -0.001         -0.059         -0.153         -0.148         -0.025         -0.002         -0.006          0.019          0.020         -0.209          0.317         -0.105         -0.226          0.046          0.054          0.058          0.074          0.057          0.066          0.086          0.087          0.128          0.125          0.154          0.167          0.161          0.188          0.262          0.202          0.068         -0.110         -0.300         -0.019         -0.085         -0.261         -0.239         -0.085         -0.100         -0.026         -0.132         -0.192         -0.007         -0.010         -0.018         -0.032          0.020         -0.089          0.452          0.957          5.001          0.457          0.727         -1.530          0.138         -0.148          0.654         -1.391         -0.228         -0.518         -0.104         -0.159         -0.411         -0.200         -0.110         -0.148         -0.161         -0.064         -0.061         -0.081         -0.062         -0.046         -0.065         -0.037         -0.031          0.008          0.287         -0.022         -0.286         -0.150         -0.013          0.006         -0.024         -0.220          0.366        128.257
       8000.000         -0.171         -0.021          0.027          0.060          0.040         -0.030         -0.130          0.003         -0.028         -0.059         -0.015         -0.033         -0.033         -0.033         -0.015         -0.157          0.175         -0.123          0.005          0.009         -0.024          0.028          0.026          0.044          0.077          0.057          0.067          0.076          0.086          0.118          0.113          0.121          0.141          0.187          0.157          0.179          0.193          0.318          0.235          0.067          0.208          0.164          0.722          0.651          0.869          1.423          0.645          0.280         -0.561         48.210         -0.117         -0.560         -0.706          4.989          2.047          1.259          0.147          0.182          0.214         -2.456          0.067         -0.060         -0.039          2.265          0.148          1.010          0.555         -0.023         -0.161         27.706          0.201         -0.184         -0.403         -0.364         -0.216         -0.139         -0.137         -0.077         -0.100         -0.029         -0.074         -0.078         -0.056         -0.051         -0.040         -0.034          0.325         -0.317         -0.017         -0.019         -0.019         -0.015         -0.012          0.001          0.004          0.002         -0.000         -0.012          0.006         -0.002         -0.006          0.002         -0.001         -0.004          0.012          0.016          0.023         -0.069         -0.254          0.031          0.043          0.043          0.031          0.066          0.060          0.051          0.061          0.093          0.051          0.033          0.056          0.082          0.018         -0.042          0.039          0.027         -0.018         -0.096         -0.045          0.008         -0.012         -0.013          0.013         -0.053         -0.075          0.108          1.692          0.098          0.278          0.057          0.746          0.062         -0.031         -0.067         -0.011          0.039          0.522         -0.018          0.029          0.029         -0.010          0.003          0.016          0.027         -0.005         -0.001         -0.017         -0.020         -0.038         -0.071         -0.050         -0.041         -0.044         -0.037         -0.031         -0.020         -0.036         -0.027         -0.016         -0.136         -0.022         -0.007         -0.009         -0.011         -0.014         -0.089          0.004         -0.043         -0.105         -0.101         -0.030         -0.003         -0.001          0.013          0.015         -0.192          0.162         -0.084         -0.111          0.032          0.029          0.032          0.063          0.050          0.050          0.054          0.059          0.087          0.070          0.092          0.086          0.102          0.073          0.113          0.016          0.028         -0.041          0.019         -0.020         -0.054         -0.045         -0.126         -0.058         -0.061          0.015         -0.047         -0.018         -0.007         -0.012         -0.061         -0.022          0.008         -0.101          0.175          0.757          4.702          0.222         -0.048         -0.662          0.173         -0.035         -0.148         -0.907         -0.043         -0.304         -0.651         -0.142         -0.306         -0.155         -0.094         -0.107         -0.139         -0.051         -0.051         -0.065         -0.069         -0.039         -0.052         -0.027         -0.015          0.007          0.250         -0.017         -0.221         -0.115         -0.002          0.002         -0.003         -0.163          0.305        144.047
      12000.000         -0.162         -0.007          0.021          0.054          0.021         -0.030         -0.048         -0.030         -0.023         -0.044         -0.063         -0.023         -0.027         -0.027         -0.016         -0.140          0.173         -0.101         -0.001          0.011         -0.022          0.023          0.018          0.033          0.060          0.044          0.049          0.058          0.068          0.086          0.098          0.097          0.089          0.120          0.084          0.114          0.110          0.197          0.146         -0.007          0.222          0.203          0.420          0.527          0.682          1.370          0.770          0.353          0.229         48.275          0.063         -0.200         -0.719          4.825          1.361          1.156         -0.129          0.093          0.295         -3.845          0.085         -0.086          0.148          3.331          0.072          0.470          0.288         -0.103         -0.262         23.464         -0.013         -0.128         -0.334         -0.272         -0.217         -0.120         -0.147         -0.079         -0.079         -0.034         -0.066         -0.053         -0.047         -0.044         -0.040         -0.031          0.323         -0.344         -0.015         -0.016         -0.016         -0.015         -0.011          0.003          0.003          0.001         -0.001         -0.010          0.002          0.000         -0.002          0.005          0.000         -0.002          0.011          0.024          0.023         -0.061         -0.244          0.032          0.038          0.044          0.048          0.058          0.058          0.055          0.056          0.094          0.058          0.035          0.043          0.099          0.036          0.018          0.160          0.053         -0.030         -0.047         -0.075         -0.052         -0.079         -0.041         -0.025         -0.132         -0.074          0.075          3.599          0.301          0.705         -0.030          1.469          0.419          0.003         -0.025          0.072          0.044          0.876         -0.053         -0.016          0.014         -0.064         -0.042          0.005         -0.001         -0.030         -0.043         -0.040         -0.035         -0.037         -0.056         -0.040         -0.042         -0.045         -0.039         -0.027         -0.022         -0.027         -0.014         -0.014         -0.123         -0.021         -0.002         -0.007         -0.011         -0.011         -0.038          0.002         -0.012         -0.097         -0.096         -0.021         -0.003         -0.005          0.009          0.013         -0.223          0.220         -0.088         -0.142          0.026          0.028          0.042          0.026          0.040          0.048          0.056          0.058          0.073          0.065          0.066          0.066          0.079          0.071          0.038         -0.020          0.029         -0.016          0.035         -0.011         -0.010         -0.007         -0.051         -0.026         -0.033         -0.134         -0.001         -0.132         -0.075          0.032         -0.157          0.107         -0.010         -0.105          0.015          0.323          3.269          0.111         -0.159          1.171          0.052         -0.049          0.115         -0.350         -0.028         -0.212         -0.511         -0.087         -0.267         -0.155         -0.101         -0.102         -0.113         -0.045         -0.040         -0.053         -0.049         -0.028         -0.041         -0.022         -0.017          0.005          0.233         -0.011         -0.176         -0.102         -0.001         -0.002         -0.019         -0.128          0.213        142.748
      16000.000         -0.532          0.009          0.068          0.148         -0.007         -0.076         -0.158         -0.049         -0.049         -0.081         -0.016         -0.015         -0.041         -0.042         -0.021         -0.186          0.238         -0.168          0.002          0.016         -0.033          0.019          0.027          0.048          0.080          0.069          0.075          0.079          0.082          0.133          0.135          0.140          0.116          0.250          0.167          0.209          0.185          0.267          0.195          0.108          0.159          0.029          0.312          0.559          0.600          0.967          0.531          0.338         -0.055         42.900         -0.048         -0.387         -0.560          2.778          1.156          0.551          0.104          0.151          0.161         -2.133          0.114          0.092          0.197          2.556          0.236          0.774          0.515         -0.050         -0.250         30.185          0.149         -0.196         -0.494         -0.440         -0.275         -0.167         -0.199         -0.082         -0.099         -0.096         -0.095         -0.100         -0.062         -0.063         -0.056         -0.040          0.458         -0.530         -0.024         -0.030         -0.023         -0.018         -0.015          0.001          0.006          0.005         -0.001          0.014          0.018         -0.004         -0.006         -0.001         -0.002         -0.004          0.014          0.032          0.027         -0.084         -0.356          0.042          0.062          0.055          0.037          0.070          0.060          0.083          0.063          0.137          0.088          0.038          0.063          0.100          0.029         -0.044          0.078         -0.016         -0.040         -0.091         -0.080         -0.064         -0.064         -0.030         -0.025         -0.016          0.040          0.094          1.855          0.163         -0.076          0.205          1.171          0.897         -0.039         -0.078         -0.016          0.051          0.743         -0.005          0.054          0.046         -0.036          0.002          0.057          0.026         -0.012          0.005         -0.024         -0.024         -0.036         -0.082         -0.051         -0.059         -0.069         -0.050         -0.036         -0.031         -0.041         -0.060         -0.022         -0.171         -0.026         -0.021         -0.009         -0.012         -0.012         -0.056          0.010         -0.022         -0.128         -0.127         -0.038         -0.000         -0.004          0.015          0.018         -0.127          0.328         -0.087         -0.217          0.040          0.049          0.031          0.038          0.073          0.067          0.089          0.089          0.114          0.104          0.114          0.138          0.148          0.140          0.204          0.085          0.027         -0.001         -0.002         -0.061         -0.084         -0.173         -0.240         -0.086         -0.068         -0.076         -0.093         -0.129         -0.070          0.009          0.065         -0.004          0.047         -0.111          0.320          1.644          5.563          0.469          2.146         -1.412          0.141         -0.107          0.513         -0.153         -0.112         -0.428         -0.409         -0.179         -0.464         -0.248         -0.134         -0.150         -0.155         -0.079         -0.064         -0.074         -0.063         -0.053         -0.030         -0.034         -0.016          0.010          0.318         -0.012         -0.268         -0.171         -0.008         -0.003         -0.027         -0.189          0.315        150.002
      20000.000         -0.267         -0.015          0.030          0.076          0.071         -0.024         -0.010         -0.020         -0.020         -0.056         -0.004         -0.009         -0.028         -0.031         -0.016         -0.261          0.223         -0.058          0.008          0.011         -0.033          0.030          0.028          0.039          0.077          0.046          0.064          0.067          0.069          0.090          0.102          0.106          0.117          0.163          0.103          0.190          0.139          0.226         -0.050          0.031          0.261          0.129          0.493          0.506          0.593          1.947          0.725          0.257          0.264         33.587          0.049         -0.384         -0.814          6.621          1.794          0.721         -0.158          0.150          0.158         -1.992          0.076         -0.004         -0.015          2.097          0.153          0.596          0.451         -0.059         -0.216         22.212          0.021         -0.245         -0.368         -0.403         -0.209         -0.134         -0.128         -0.075         -0.094         -0.036         -0.072         -0.072         -0.053         -0.055         -0.051         -0.035          0.383         -0.415         -0.022         -0.030         -0.023         -0.020         -0.012         -0.007          0.004          0.003         -0.002          0.014          0.005         -0.002         -0.006          0.003         -0.002         -0.003          0.011          0.035          0.026         -0.077         -0.296          0.041          0.052          0.053          0.038          0.064          0.068          0.062          0.046          0.114          0.078          0.027          0.050          0.077          0.029         -0.027          0.018          0.045         -0.018         -0.073         -0.062         -0.049         -0.014         -0.017         -0.136         -0.037          0.027          0.073          2.060          0.173          0.347          0.117          1.103          0.119         -0.044         -0.075         -0.025          0.053          0.622          0.001          0.032          0.029         -0.006          0.006          0.026          0.018         -0.008         -0.003         -0.034         -0.039         -0.032         -0.060         -0.042         -0.038         -0.051         -0.032         -0.036         -0.027         -0.040         -0.028         -0.017         -0.163         -0.025         -0.009         -0.010         -0.013         -0.017         -0.048         -0.004         -0.032         -0.116         -0.119         -0.025          0.001         -0.003          0.011          0.017         -0.112          0.250         -0.091         -0.154          0.033          0.035          0.056          0.060          0.055          0.057          0.059          0.065          0.098          0.095          0.111          0.111          0.116          0.115          0.132          0.089          0.048         -0.040         -0.032         -0.026         -0.078         -0.152         -0.231         -0.057         -0.076          0.011         -0.093         -0.010         -0.077          0.047          0.189         -0.007          0.014         -0.322          0.411          1.940         12.818          0.225         -0.331          5.205         -0.070         -0.327          0.310         -0.329         -0.122         -0.274         -0.676         -0.156         -0.383         -0.211         -0.128         -0.129         -0.173         -0.052         -0.051         -0.063         -0.060         -0.041         -0.045         -0.034          0.020          0.009          0.267         -0.014         -0.238         -0.114         -0.007         -0.002         -0.009         -0.152          0.293        153.136
      24000.000         -0.176         -0.014          0.022          0.037          0.033         -0.027         -0.123          0.004         -0.016         -0.051         -0.016         -0.012         -0.027         -0.031         -0.010         -0.178          0.211         -0.120         -0.000          0.015         -0.029          0.026          0.024          0.032          0.064          0.046          0.055          0.065          0.082          0.129          0.099          0.107          0.113          0.213          0.110          0.142          0.137          0.203          0.136          0.096          0.222          0.140          0.320          0.398          0.471          1.255          0.562          0.158         -0.270         19.678         -0.104         -0.193         -0.415          5.397          0.876          0.726          0.286          0.253          0.323         -4.009          0.108         -0.137          0.048          3.553          0.089          0.897          0.443         -0.125         -0.355         26.875         -0.037         -0.248         -0.428         -0.354         -0.214         -0.142         -0.148         -0.071         -0.090         -0.095         -0.068         -0.070         -0.044         -0.050         -0.041         -0.032          0.372         -0.405         -0.022         -0.026         -0.021         -0.015         -0.010          0.005          0.003          0.003          0.001         -0.009          0.005         -0.002         -0.003          0.010         -0.003         -0.006          0.015          0.030          0.028         -0.048         -0.281          0.036          0.046          0.049          0.034          0.066          0.063          0.069          0.053          0.119          0.068          0.045          0.057          0.100          0.040         -0.016          0.052          0.090         -0.013         -0.019         -0.093          0.066          0.067          0.004         -0.089         -0.072         -0.060          0.088          2.356          0.163          0.418         -0.053          1.021          0.078          0.024         -0.150          0.072          0.063          0.780         -0.018         -0.018          0.008         -0.036         -0.019          0.022          0.003         -0.018         -0.024         -0.019         -0.032         -0.038         -0.063         -0.045         -0.045         -0.052         -0.035         -0.027         -0.025         -0.039         -0.021         -0.018         -0.141         -0.023         -0.005         -0.007         -0.012         -0.011         -0.042          0.002         -0.015         -0.109         -0.112         -0.017         -0.001         -0.004          0.013          0.016         -0.152          0.280         -0.091         -0.199          0.027          0.026          0.045          0.033          0.054          0.054          0.063          0.068          0.080          0.073          0.060          0.076          0.079          0.074          0.060          0.017          0.008         -0.047         -0.073         -0.017         -0.049         -0.111         -0.123         -0.053         -0.041         -0.022         -0.055         -0.038         -0.030         -0.001         -0.063         -0.033          0.027         -0.134          0.178          0.235          4.870          0.178          0.569         -0.083          0.200          0.054         -0.018         -0.403         -0.024         -0.233         -0.665         -0.051         -0.321         -0.148         -0.092         -0.100         -0.134         -0.042         -0.040         -0.062         -0.056         -0.035         -0.041         -0.030         -0.021          0.009          0.226         -0.012         -0.221         -0.098          0.005          0.002         -0.014         -0.142          0.261        119.436