# Time	LEU-41	ALA-42	ILE-43	VAL-44	PHE-45	GLY-46	ASN-47	GLY-48	LEU-49	VAL-50	CYS-51	MET-52	ALA-53	VAL-54	LEU-55	LYS-56	GLU-57	ARG-58	ALA-59	LEU-60	GLN-61	THR-62	THR-63	THR-64	ASN-65	TYR-66	LEU-67	VAL-68	VAL-69	SER-70	LEU-71	ALA-72	VAL-73	ALA-74	ASH-75	LEU-76	LEU-77	VAL-78	ALA-79	THR-80	LEU-81	VAL-82	MET-83	PRO-84	TRP-85	VAL-86	VAL-87	TYR-88	LEU-89	GLU-90	VAL-91	THR-92	GLY-93	GLY-94	VAL-95	TRP-96	ASN-97	PHE-98	SER-99	ARG-100	ILE-101	CYS-102	CYX-103	ASP-104	VAL-105	PHE-106	VAL-107	THR-108	LEU-109	ASP-110	VAL-111	MET-112	MET-113	CYS-114	THR-115	ALA-116	SER-117	ILE-118	TRP-119	ASN-120	LEU-121	CYS-122	ALA-123	ILE-124	SER-125	ILE-126	ASP-127	ARG-128	TYR-129	THR-130	ALA-131	VAL-132	VAL-133	MET-134	PRO-135	VAL-136	HID-137	TYR-138	GLN-139	HID-140	GLY-141	THR-142	GLY-143	GLN-144	SER-145	SER-146	CYS-147	ARG-148	ARG-149	VAL-150	ALA-151	LEU-152	MET-153	ILE-154	THR-155	ALA-156	VAL-157	TRP-158	VAL-159	LEU-160	ALA-161	PHE-162	ALA-163	VAL-164	SER-165	CYS-166	PRO-167	LEU-168	LEU-169	PHE-170	GLY-171	PHE-172	ASN-173	THR-174	THR-175	GLY-176	ASP-177	PRO-178	THR-179	VAL-180	CYX-181	SER-182	ILE-183	SER-184	ASN-185	PRO-186	ASP-187	PHE-188	VAL-189	ILE-190	TYR-191	SER-192	SER-193	VAL-194	VAL-195	SER-196	PHE-197	TYR-198	LEU-199	PRO-200	PHE-201	GLY-202	VAL-203	THR-204	VAL-205	LEU-206	VAL-207	TYR-208	ALA-209	ARG-210	ILE-211	TYR-212	VAL-213	VAL-214	LEU-215	LYS-216	GLN-217	ARG-218	ARG-219	ARG-220	LYS-221	GLY-319	VAL-320	PRO-321	LEU-322	ARG-323	GLU-324	LYS-325	LYS-326	ALA-327	THR-328	GLN-329	MET-330	VAL-331	ALA-332	ILE-333	VAL-334	LEU-335	GLY-336	ALA-337	PHE-338	ILE-339	VAL-340	CYS-341	TRP-342	LEU-343	PRO-344	PHE-345	PHE-346	LEU-347	THR-348	HIE-349	VAL-350	LEU-351	ASN-352	THR-353	HID-354	CYX-355	GLN-356	THR-357	CYX-358	HID-359	VAL-360	SER-361	PRO-362	GLU-363	LEU-364	TYR-365	SER-366	ALA-367	THR-368	THR-369	TRP-370	LEU-371	GLY-372	TYR-373	VAL-374	ASN-375	SER-376	ALA-377	LEU-378	ASN-379	PRO-380	VAL-381	ILE-382	TYR-383	THR-384	THR-385	PHE-386	ASN-387	ILE-388	GLU-389	PHE-390	ARG-391	LYS-392	ALA-393	PHE-394	LEU-395	LYS-396	ILE-397	DPN-14602	
          0.000         14.926          0.194         -0.250         -0.138         -0.079          0.324          0.347          0.161          0.259          0.480          0.206          0.293          0.261          0.308          0.186          9.834         -9.899          8.632         -0.050         -0.185          0.236         -0.285         -0.284         -0.526         -0.485         -0.306         -0.517         -0.473         -0.585         -0.785         -0.819         -0.557         -0.414         -0.687         -2.006         -0.693         -0.220          0.091         -0.183          0.386          0.320          0.099          0.409         -0.081          0.900          1.437          0.058          0.573          1.466        -25.905          0.265          1.006          0.585         -0.397         -0.115         -0.040          0.256          0.465         -0.827         20.942         -0.893         -0.881         -1.467        -23.710         -1.411         -2.928         -2.975         -1.867         -0.822       -109.761         -9.161         -0.203          2.311         -0.378          1.490          1.029          2.622          1.221          1.279          2.002          0.978          1.026          0.567          0.603          0.601          0.387        -12.537         12.462          0.221          0.325          0.254          0.234          0.215          0.050         -0.093         -0.106         -0.162          0.086         -0.013         -0.003          0.033         -0.161         -0.037         -0.145         -0.076         -0.236         -0.335          9.212         11.963         -0.386         -0.449         -0.438         -0.478         -0.600         -0.523         -0.513         -0.848         -1.176         -0.457         -0.793         -0.874         -0.608          0.223          0.069          0.391         -0.365          0.518          1.079          0.594          0.412          0.140         -0.399         -1.101         -0.331          0.014          0.100        -17.294         -0.726         -0.670          0.014          0.013          0.860          0.256         -0.210         -0.725         -0.715        -18.605         -2.318         -4.238         -1.226          0.095         -9.064         -1.490         -0.409          0.657         -3.893         -0.589          0.579          0.719          1.198          0.671          0.441          0.657          0.545          0.425          0.306          0.417          0.594          0.239         10.579          0.336          0.203          0.207          0.227          0.220          8.975          0.141          8.338          7.878          7.490          7.247          0.098          0.075         -0.217         -0.215          9.428        -10.782          9.011          9.260         -0.309         -0.408         -0.405         -0.587         -0.487         -0.448         -0.536         -0.619         -0.740         -0.742         -0.712         -1.288         -1.190         -0.680         -0.636         -3.599         -0.906          0.051         -4.359         -3.150         -0.258          1.840         -3.217          0.225          0.617          2.459          0.361          0.838         -0.452         -0.310         -0.274          0.304          0.065          0.110         -1.421         -1.130        -19.168         -1.042         -3.764         -2.038         -1.025         -2.104         -5.826         -3.355          0.325          3.200          3.295          0.776          2.681          1.814          0.641          0.964          1.218          0.426          0.520          0.616          0.477          0.476          0.470          0.341          0.493          0.064        -10.198          0.173          9.872          8.469          0.063         -0.112         -0.112          9.522         -9.531       -126.234
       3000.000         14.617          0.044         -0.225         -0.254          0.042          0.432          0.276          0.118          0.213          0.446          0.093          0.255          0.297          0.335          0.234          9.658         -9.904          8.711         -0.099         -0.148          0.344         -0.319         -0.226         -0.465         -0.750         -0.225         -0.545         -0.566         -0.576         -0.568         -0.756         -0.697         -0.572         -0.761         -1.964         -0.622         -0.277          0.177         -0.331          0.451          0.345         -0.350         -0.902         -0.049          1.819          1.828          0.348          0.653          1.357        -25.033          0.429          0.963          0.474         -0.483          0.166         -0.350          0.043         -0.311         -1.089         20.664         -0.802         -0.613         -1.710        -23.647         -1.351         -2.219         -3.588         -2.139         -1.442       -112.932        -11.162          0.009          2.384          2.997          1.698          1.178          2.524          1.521          1.009          2.073          1.062          0.854          0.604          0.588          0.644          0.407        -12.678         12.924          0.294          0.323          0.263          0.222          0.213          0.022         -0.085         -0.103         -0.235          0.051         -0.063         -0.015          0.081         -0.153         -0.080         -0.189          0.134         -0.147         -0.293          9.238         11.782         -0.381         -0.385         -0.370         -0.268         -0.609         -0.608         -0.541         -0.585         -1.120         -0.607         -0.523         -0.847         -0.639         -0.082          0.308          0.545         -0.027          0.561          1.116          0.528          0.489          0.214         -0.539         -1.236         -0.387          0.159         -0.115        -17.834         -0.727         -0.685         -0.052         -0.217          3.116         -0.416         -0.048         -0.740         -0.850        -19.164         -2.226         -3.700         -1.167          0.039        -10.543         -1.041         -0.363          0.601         -3.508         -0.717          0.804          0.666          1.085          0.855          0.467          0.636          0.952          0.388          0.353          0.463          0.229          0.238         10.447          0.352          0.232          0.179          0.238          0.225          9.710          0.235          8.954          8.249          7.050          7.714          0.002          0.092         -0.181         -0.201          9.403        -11.194          9.546          9.493         -0.291         -0.424         -0.301         -0.651         -0.501         -0.520         -0.515         -0.623         -0.873         -0.703         -0.549         -1.028         -1.368         -0.696         -0.253         -4.118         -1.177          0.196         -7.369         -3.758         -0.022          1.910         -3.217          0.223          0.416          2.066          0.180          0.972         -0.301         -0.149         -0.328          0.390         -0.021          0.184         -1.227         -1.334        -19.538         -1.173         -3.232         -3.229         -1.347         -2.218         -5.919         -2.234          0.434          3.222         -0.707          0.667          3.631          2.122          0.779          0.994          1.267          0.464          0.544          0.660          0.474          0.437          0.515          0.291          0.392          0.048         -9.928          0.212         11.271          8.726          0.033          0.050          0.048          9.590        -10.473       -131.548
       6000.000         15.228          0.095         -0.246         -0.281         -0.150          0.293          0.499          0.237          0.254          0.492          0.104          0.332          0.275          0.359          0.251         10.080         -9.919          8.520         -0.072         -0.174          0.394         -0.379         -0.356         -0.433         -0.753         -0.320         -0.626         -0.603         -0.596         -0.970         -1.003         -0.625         -0.555         -0.825         -2.456         -0.323         -0.077          0.614         -0.076          0.612          0.683          0.702          0.046         -0.117          1.664          1.441          0.056          0.490          1.348        -24.767          0.451          1.006          0.347         -0.416          0.227          0.120          0.013          0.344         -0.838         21.546         -0.979         -0.649         -1.381        -24.092         -1.300         -1.991         -2.710         -1.557         -0.420       -111.830         -6.915          0.252          2.155          2.550          1.240          1.000          2.611          1.535          0.914          2.167          1.004          1.002          0.587          0.597          0.588          0.441        -12.674         12.703          0.247          0.263          0.255          0.233          0.204         -0.116         -0.087         -0.076         -0.178          0.080          0.111         -0.016          0.035         -0.175         -0.077         -0.158         -0.067         -0.133         -0.302          9.229         12.019         -0.377         -0.410         -0.387         -0.464         -0.580         -0.510         -0.412         -0.624         -1.166         -0.576         -0.734         -0.759         -0.959         -0.059         -0.042          0.591         -0.010          0.687          1.272          0.412          0.513          0.182         -0.451         -1.227         -0.410          0.026         -0.080        -17.196         -0.763         -0.474          0.154          0.017          4.237         -1.369          0.004         -0.873         -0.683        -18.959         -2.928         -3.488         -1.322          0.370         -9.288         -2.179         -0.338          0.549         -3.669         -0.165          0.831          0.483          1.073          0.669          0.420          0.551          0.571          0.382          0.322          0.453          0.242          0.225         10.586          0.321          0.279          0.183          0.232          0.278         10.709          0.206          8.919          8.396          7.129          7.415          0.066          0.101         -0.191         -0.220         10.006        -10.937          9.176          9.727         -0.306         -0.454         -0.371         -0.587         -0.493         -0.568         -0.498         -0.606         -0.853         -0.769         -0.625         -1.012         -1.213         -0.460         -1.020         -3.882         -0.988          0.351         -7.078         -1.513          0.008          1.918         -0.245          0.343          0.467          0.797          0.471          0.818         -0.371         -0.436         -0.306          0.339         -0.140          0.436         -1.297         -1.398        -19.417         -1.209         -3.668         -2.418         -0.958         -2.065         -4.889         -2.513          0.453          2.830          2.053          0.869          4.101          2.195          0.765          0.956          1.520          0.472          0.579          0.635          0.443          0.458          0.486          0.321          0.428          0.034        -10.030          0.137         11.186          9.304         -0.007         -0.014         -0.121          9.862        -10.725       -108.489
       9000.000         14.999          0.086         -0.261         -0.257          0.057          0.304          0.537          0.090          0.193          0.504          0.172          0.144          0.240          0.318          0.172          9.608         -9.944          8.707         -0.096         -0.213          0.359         -0.308         -0.357         -0.353         -0.732         -0.341         -0.524         -0.722         -0.542         -0.611         -0.812         -0.788         -0.475         -0.717         -2.286         -0.497         -0.005          0.305          0.253          0.283          0.621          0.556         -1.064         -0.140          1.618          1.278          0.209          0.689          1.277        -23.155          0.249          0.975          0.606         -0.388          0.168         -0.141         -0.128          0.381         -0.836         20.465         -0.941         -0.931         -1.371        -23.577         -1.533         -2.186         -2.722         -1.112         -1.627       -112.884        -10.835         -0.173          2.408          1.044          1.395          1.069          2.910          1.445          1.468          2.085          0.985          0.921          0.569          0.547          0.589          0.418        -12.747         12.843          0.193          0.280          0.267          0.241          0.224          0.080         -0.093         -0.088          0.008          0.096          0.145         -0.077          0.055         -0.195         -0.122         -0.165         -0.080         -0.160         -0.324          9.288         11.966         -0.387         -0.455         -0.444         -0.274         -0.559         -0.427         -0.513         -0.885         -1.307         -0.549         -0.573         -0.978         -0.726         -0.083          0.192          0.574          0.236          0.662          1.158          0.738          0.537          0.573         -0.474         -0.644          0.128          0.104          0.001        -16.750         -0.446         -0.575          0.101         -0.198          0.674         -2.159          0.059         -1.041         -0.839        -19.071         -3.425         -4.371         -1.017         -0.114         -2.185         -1.093         -0.193          0.491         -2.994         -0.376          0.806          0.733          1.174          0.661          0.392          0.528          0.658          0.262          0.309          0.414          0.356          0.257         10.484          0.348          0.255          0.179          0.236          0.229          9.940         -0.030          8.508          8.558          7.015          7.565          0.051          0.094         -0.198         -0.204          9.652        -11.031          9.485          9.643         -0.300         -0.457         -0.383         -0.598         -0.487         -0.422         -0.483         -0.517         -0.794         -0.701         -0.599         -1.109         -1.099         -0.440         -0.369         -3.511         -0.826          0.178         -5.621         -3.427         -0.322          1.845         -2.775          0.055          0.560          1.818          0.795          0.980         -0.346         -0.050         -0.272          0.326         -0.064          0.411         -1.208         -1.343        -19.135         -1.231         -0.414         -2.783         -1.152         -2.406         -6.172         -2.304          0.442          2.658          1.096          0.547          3.694          1.915          0.730          0.886          1.453          0.476          0.529          0.598          0.496          0.460          0.509          0.325          0.433          0.037        -10.855          0.095          9.551          8.576          0.022         -0.012         -0.161          9.839         -9.889       -115.941
      12000.000         14.882         -0.073         -0.221         -0.084          0.020          0.401          0.558          0.122          0.219          0.433         -0.012          0.226          0.256          0.362          0.275         10.080         -9.827          8.857         -0.090         -0.179          0.392         -0.302         -0.318         -0.422         -0.772         -0.344         -0.492         -0.577         -0.539         -0.752         -0.690         -0.539         -0.473         -0.954         -2.276         -0.444         -0.074          0.371         -0.178          0.618          0.413          0.964          0.123         -0.168          1.770          1.332          0.299          0.346          1.539        -25.238          0.355          0.932          0.570         -0.266          0.320          0.168         -0.022          0.695         -0.817         21.043         -0.869         -0.855         -1.368        -23.326         -1.402         -2.101         -2.816         -1.110         -0.539       -116.115         -8.885         -0.378          1.688          2.499          1.534          0.795          2.702          1.284          0.924          2.057          1.091          0.978          0.546          0.615          0.659          0.408        -12.628         12.905          0.219          0.306          0.262          0.236          0.209          0.017         -0.075         -0.085         -0.124          0.048          0.147         -0.003          0.062         -0.176         -0.094         -0.058          0.089         -0.227         -0.405          9.384         11.627         -0.375         -0.403         -0.384         -0.736         -0.619         -0.448         -0.529         -0.733         -1.254         -0.497         -0.422         -0.796         -0.928         -0.063         -0.015          0.423          0.321          0.552          0.968          0.537          0.414          0.262         -0.553         -0.773         -0.786         -0.502          0.071        -16.585         -0.883         -0.631         -0.230         -0.343          3.643         -2.183         -0.054         -0.831         -0.929        -18.834         -3.570         -3.410         -1.361          0.197         -1.673         -0.524         -0.350          0.563         -5.103         -0.444          0.779          0.665          1.199          0.606          0.470          0.564          0.681          0.425          0.373          0.426          0.357          0.258         10.530          0.342          0.198          0.196          0.215          0.258          9.144          0.119          8.418          8.022          7.404          7.192          0.079          0.076         -0.230         -0.217          9.477        -11.102          8.993          9.907         -0.332         -0.413         -0.520         -0.612         -0.486         -0.504         -0.500         -0.623         -0.876         -0.796         -0.629         -1.349         -1.423         -0.668         -0.612         -3.453         -1.249          0.266         -3.877          2.175          0.096          2.063         -3.920          0.479          0.631          2.039          0.434          0.791         -0.409         -0.546         -0.360          0.367         -0.023          0.559         -1.167         -1.263        -20.166         -1.196         -3.376         -2.489         -1.045         -2.462         -5.985         -2.214          0.426          3.184          3.973          0.997          3.722          2.247          0.852          0.935          1.445          0.431          0.535          0.659          0.519          0.437          0.512          0.309          0.366         -0.010        -10.063          0.128         11.489          8.998          0.016         -0.045          0.013          8.820        -10.514       -108.783
      15000.000         14.711         -0.033         -0.510         -0.240         -0.075          0.239          0.538          0.076          0.259          0.463          0.101          0.131          0.299          0.350          0.214         10.537        -10.010          9.422         -0.095         -0.173          0.237         -0.275         -0.311         -0.539         -0.632         -0.363         -0.580         -0.591         -0.557         -0.851         -0.854         -0.559         -0.476         -0.726         -1.890         -0.646          0.057          0.431          0.175          0.681          0.569          0.866          0.472          0.124          1.863          1.468          0.115          0.558          1.234        -27.213          0.457          0.995         -0.523         -0.215          0.237          0.095          0.274          0.622         -0.822         22.188         -0.923         -0.626         -1.373        -24.016         -1.386         -2.328         -2.785         -1.034         -0.925       -112.721        -10.921         -0.101          1.185          1.099          0.993          1.025          2.458          1.376          0.901          2.036          1.075          0.961          0.583          0.614          0.650          0.406        -12.562         12.641          0.320          0.299          0.271          0.238          0.189          0.006         -0.069         -0.084          0.121          0.055         -0.014         -0.039          0.037         -0.137         -0.039          0.191         -0.184         -0.270         -0.386          9.086         11.741         -0.347         -0.409         -0.382         -0.272         -0.630         -0.489         -0.411         -0.645         -0.985         -0.349         -0.431         -0.676         -0.804         -0.081         -0.098          0.278         -0.006          0.534          1.078          0.514          0.403          0.581         -0.308         -1.264         -0.783         -0.347          0.249        -17.578         -0.859         -0.932         -0.143         -1.606          3.797         -1.346         -0.117         -0.673         -0.951        -18.542         -3.064         -2.422         -1.123         -0.173         -7.953         -1.234         -0.302          0.623         -3.250         -0.157          1.033          0.702          1.138          0.717          0.501          0.553          0.478          0.412          0.326          0.446          0.480          0.267         10.569          0.304          0.200          0.201          0.230          0.255          9.186          0.116          7.982          9.096          7.213          7.548          0.095          0.094         -0.197         -0.219          9.397        -10.852          9.555          9.721         -0.323         -0.382         -0.207         -0.625         -0.511         -0.461         -0.462         -0.659         -0.859         -0.804         -0.752         -0.846         -1.354         -0.698         -0.570         -4.244         -1.087          0.359         -6.419         -2.587         -0.025          1.774         -2.189          0.544          0.578         -0.255          0.642          0.726         -0.458         -0.801         -0.358          0.221         -0.252          0.483         -1.359         -1.280        -19.309         -1.088         -3.510         -2.122         -0.783         -1.695         -6.417         -2.275          0.038          3.841          1.854          0.884          3.912          2.394          0.892          1.001          1.403          0.491          0.547          0.637          0.479          0.476          0.490          0.264          0.477          0.091        -10.356          0.183         10.471          8.489          0.016         -0.043          0.016          8.952         -9.606       -122.008
      18000.000         14.806          0.036         -0.333         -0.305          0.002          0.445          0.508          0.151          0.190          0.440          0.109          0.148          0.261          0.330          0.251          9.755         -9.836          9.781         -0.008         -0.135          0.386         -0.329         -0.306         -0.465         -0.804         -0.315         -0.527         -0.680         -0.540         -0.705         -0.915         -0.525         -0.418         -0.523         -2.239         -0.276         -0.199         -0.267          0.135          0.487          0.441          0.790         -0.399         -0.153          1.121          1.207          0.401          0.901          1.322        -25.338          0.447          0.981          0.639         -0.045         -0.046         -0.167          0.286          0.431         -0.875         22.618         -0.897         -0.677         -1.336        -24.357         -1.383         -2.766         -2.931         -1.347         -0.650       -109.863         -7.665         -0.121          2.131          2.054          1.518          1.025          2.432          1.439          0.753          2.077          0.830          0.870          0.543          0.588          0.719          0.415        -12.471         12.697          0.239          0.299          0.257          0.230          0.207         -0.011         -0.040         -0.070          0.156          0.100          0.158         -0.034          0.035         -0.130         -0.070         -0.014          0.065         -0.218         -0.262          9.290         11.607         -0.381         -0.407         -0.406         -0.663         -0.542         -0.487         -0.484         -0.681         -0.863         -0.577         -0.589         -0.892         -0.714         -0.059         -0.051          0.336          0.275          0.523          1.083          0.396          0.454          0.527         -0.274         -1.303         -0.682          0.055          0.208        -18.253         -0.882         -0.732         -0.128         -0.941          2.279         -1.727          0.741         -0.761         -0.890        -19.210         -3.139         -3.940         -0.813         -0.182         -8.512         -1.189         -0.662          0.520         -2.862          0.024          1.162          0.665          1.163          0.759          0.383          0.602          0.701          0.344          0.347          0.458          0.306          0.260         10.588          0.347          0.219          0.172          0.228          0.222          9.748         -0.041          8.758          8.671          7.488          7.234          0.064          0.109         -0.196         -0.211         10.178        -10.891          9.375          9.895         -0.316         -0.509         -0.144         -0.582         -0.495         -0.490         -0.462         -0.588         -0.869         -0.734         -0.622         -1.098         -1.001         -0.582         -0.507         -4.620         -1.225          0.112         -5.904         -2.417         -0.256          1.664          0.906          0.324          0.710          2.034          0.489          0.869         -0.411         -0.142         -0.291          0.379          0.010          0.156         -1.389         -1.345        -20.445         -1.357         -2.818         -2.399         -1.125         -1.918         -5.750         -1.559          0.423          3.760          4.136          1.051          4.364          1.874          0.738          0.793          1.215          0.451          0.484          0.608          0.497          0.430          0.423          0.256          0.493          0.013        -10.789          0.070         10.050          8.592         -0.005         -0.062         -0.014          8.947         -9.404       -108.115