# Time	LEU-41	ALA-42	ILE-43	VAL-44	PHE-45	GLY-46	ASN-47	GLY-48	LEU-49	VAL-50	CYS-51	MET-52	ALA-53	VAL-54	LEU-55	LYS-56	GLU-57	ARG-58	ALA-59	LEU-60	GLN-61	THR-62	THR-63	THR-64	ASN-65	TYR-66	LEU-67	VAL-68	VAL-69	SER-70	LEU-71	ALA-72	VAL-73	ALA-74	ASH-75	LEU-76	LEU-77	VAL-78	ALA-79	THR-80	LEU-81	VAL-82	MET-83	PRO-84	TRP-85	VAL-86	VAL-87	TYR-88	LEU-89	GLU-90	VAL-91	THR-92	GLY-93	GLY-94	VAL-95	TRP-96	ASN-97	PHE-98	SER-99	ARG-100	ILE-101	CYS-102	CYX-103	ASP-104	VAL-105	PHE-106	VAL-107	THR-108	LEU-109	ASP-110	VAL-111	MET-112	MET-113	CYS-114	THR-115	ALA-116	SER-117	ILE-118	TRP-119	ASN-120	LEU-121	CYS-122	ALA-123	ILE-124	SER-125	ILE-126	ASP-127	ARG-128	TYR-129	THR-130	ALA-131	VAL-132	VAL-133	MET-134	PRO-135	VAL-136	HID-137	TYR-138	GLN-139	HID-140	GLY-141	THR-142	GLY-143	GLN-144	SER-145	SER-146	CYS-147	ARG-148	ARG-149	VAL-150	ALA-151	LEU-152	MET-153	ILE-154	THR-155	ALA-156	VAL-157	TRP-158	VAL-159	LEU-160	ALA-161	PHE-162	ALA-163	VAL-164	SER-165	CYS-166	PRO-167	LEU-168	LEU-169	PHE-170	GLY-171	PHE-172	ASN-173	THR-174	THR-175	GLY-176	ASP-177	PRO-178	THR-179	VAL-180	CYX-181	SER-182	ILE-183	SER-184	ASN-185	PRO-186	ASP-187	PHE-188	VAL-189	ILE-190	TYR-191	SER-192	SER-193	VAL-194	VAL-195	SER-196	PHE-197	TYR-198	LEU-199	PRO-200	PHE-201	GLY-202	VAL-203	THR-204	VAL-205	LEU-206	VAL-207	TYR-208	ALA-209	ARG-210	ILE-211	TYR-212	VAL-213	VAL-214	LEU-215	LYS-216	GLN-217	ARG-218	ARG-219	ARG-220	LYS-221	GLY-319	VAL-320	PRO-321	LEU-322	ARG-323	GLU-324	LYS-325	LYS-326	ALA-327	THR-328	GLN-329	MET-330	VAL-331	ALA-332	ILE-333	VAL-334	LEU-335	GLY-336	ALA-337	PHE-338	ILE-339	VAL-340	CYS-341	TRP-342	LEU-343	PRO-344	PHE-345	PHE-346	LEU-347	THR-348	HIE-349	VAL-350	LEU-351	ASN-352	THR-353	HID-354	CYX-355	GLN-356	THR-357	CYX-358	HID-359	VAL-360	SER-361	PRO-362	GLU-363	LEU-364	TYR-365	SER-366	ALA-367	THR-368	THR-369	TRP-370	LEU-371	GLY-372	TYR-373	VAL-374	ASN-375	SER-376	ALA-377	LEU-378	ASN-379	PRO-380	VAL-381	ILE-382	TYR-383	THR-384	THR-385	PHE-386	ASN-387	ILE-388	GLU-389	PHE-390	ARG-391	LYS-392	ALA-393	PHE-394	LEU-395	LYS-396	ILE-397	DPN-14602	
          0.000         -1.177         -0.007          0.107          0.061          0.059         -0.087         -0.097         -0.048         -0.056         -0.113         -0.041         -0.041         -0.056         -0.061         -0.051         -0.423          0.608         -0.164          0.008          0.046         -0.033          0.071          0.074          0.120          0.100          0.102          0.134          0.118          0.157          0.253          0.193          0.162          0.150          0.189          0.401          0.192          0.158          0.154          0.173         -0.006         -0.031         -0.106         -0.212         -0.078         -0.234         -0.640         -0.244         -0.215         -0.312          2.062         -0.124         -0.168         -0.089          0.107         -0.000         -0.039         -0.001         -0.084          0.147         -2.671          0.219          0.235          0.313          3.641          0.388          1.141          0.575          0.204         -0.078         41.264          0.642         -0.146         -0.509         -0.671         -0.301         -0.199         -0.372         -0.266         -0.255         -0.416         -0.212         -0.234         -0.151         -0.144         -0.130         -0.083          1.133         -1.092         -0.061         -0.079         -0.050         -0.036         -0.033         -0.015          0.015          0.020         -0.006         -0.026         -0.004          0.002         -0.007          0.030         -0.004          0.014          0.020          0.057          0.074         -0.116         -0.973          0.101          0.142          0.131          0.135          0.179          0.174          0.184          0.180          0.319          0.174          0.157          0.100          0.143          0.012         -0.094         -0.101          0.013         -0.145         -0.220         -0.173         -0.129         -0.044          0.020         -0.053          0.047          0.012         -0.000          1.683          0.118          0.054          0.080          0.174          0.067         -0.093         -0.146         -0.000          0.170          1.884          0.393          0.580          0.127         -0.034          3.306          0.256          0.002         -0.104          1.030          0.018         -0.079         -0.162         -0.275         -0.186         -0.184         -0.170         -0.157         -0.120         -0.079         -0.106         -0.147         -0.064         -0.443         -0.064         -0.022         -0.029         -0.041         -0.033         -0.154         -0.012         -0.122         -0.037         -0.024         -0.028         -0.010         -0.016          0.033          0.035         -0.375          0.702         -0.243         -0.286          0.078          0.106          0.100          0.118          0.117          0.123          0.150          0.143          0.187          0.220          0.215          0.183          0.197          0.199          0.107          0.380          0.057         -0.056          0.868          0.868         -0.066         -0.356          2.235         -0.164         -0.189         -0.334         -0.177         -0.184          0.057         -0.002          0.049         -0.036          0.072         -0.111          0.278          0.310          1.786          0.305          0.609          0.695          0.360          0.147          0.974          0.650          0.057         -0.202         -2.277         -0.153         -0.539         -0.376         -0.177         -0.249         -0.312         -0.116         -0.123         -0.142         -0.109         -0.109         -0.111         -0.073         -0.110          0.003          0.584         -0.039         -0.414         -0.155         -0.022          0.018         -0.013         -0.288          0.358        141.211
       3000.000         -1.114          0.020          0.085          0.078          0.001         -0.117         -0.091         -0.040         -0.045         -0.093         -0.003         -0.036         -0.056         -0.064         -0.045         -0.307          0.515         -0.145          0.020          0.032         -0.065          0.062          0.059          0.092          0.137          0.082          0.120          0.117          0.149          0.192          0.146          0.173          0.197          0.237          0.264          0.191          0.207          0.256          0.261          0.004         -0.003          0.155          0.276         -0.076         -0.549         -0.725         -0.276         -0.243         -0.300          2.147         -0.133         -0.209         -0.120          0.087         -0.006         -0.017         -0.002          0.036          0.218         -2.471          0.192          0.172          0.358          3.432          0.373          0.885          0.824          0.132         -0.056         40.656          0.849         -0.252         -0.566         -0.039         -0.116         -0.167         -0.236         -0.218         -0.200         -0.328         -0.189         -0.169         -0.134         -0.113         -0.130         -0.089          1.027         -1.023         -0.052         -0.066         -0.043         -0.025         -0.026         -0.002          0.012          0.018          0.025         -0.018          0.002         -0.002         -0.013          0.030          0.003          0.019         -0.022          0.033          0.053         -0.109         -0.820          0.094          0.118          0.113          0.099          0.164          0.171          0.175          0.128          0.246          0.183          0.103          0.087          0.123          0.051         -0.070         -0.057         -0.058         -0.135         -0.175         -0.139         -0.122         -0.044          0.020         -0.107          0.056         -0.007          0.059          1.751          0.115          0.074          0.085          0.177          0.126         -0.039         -0.087         -0.037          0.169          2.054          0.654          0.654          0.130         -0.017          3.010          0.173         -0.057         -0.039          1.368         -0.043         -0.140         -0.153         -0.252         -0.207         -0.162         -0.139         -0.154         -0.084         -0.074         -0.104         -0.060         -0.052         -0.382         -0.061         -0.017         -0.025         -0.045         -0.034         -0.167         -0.021         -0.171         -0.061         -0.023         -0.065          0.006         -0.017          0.026          0.030         -0.301          0.697         -0.288         -0.263          0.060          0.086          0.072          0.122          0.114          0.133          0.147          0.139          0.195          0.190          0.200          0.154          0.163          0.176          0.198          0.443          0.031         -0.080          1.076          0.996         -0.113         -0.310          2.672         -0.134         -0.122         -0.288         -0.133         -0.247          0.027          0.010          0.053         -0.050          0.088         -0.115          0.267          0.342          2.022          0.303          0.566          0.886          0.433          0.210          1.131          0.529         -0.039         -0.422         -0.984         -0.226         -0.507         -0.364         -0.228         -0.239         -0.217         -0.126         -0.120         -0.144         -0.102         -0.096         -0.120         -0.048         -0.087         -0.000          0.461         -0.035         -0.560         -0.161         -0.018         -0.028         -0.026         -0.301          0.387        145.263
       6000.000         -1.318         -0.007          0.041          0.064          0.066         -0.105         -0.185         -0.099         -0.061         -0.103         -0.008         -0.060         -0.052         -0.070         -0.044         -0.402          0.528         -0.160          0.001          0.039         -0.072          0.073          0.076          0.085          0.135          0.106          0.135          0.128          0.145          0.282          0.121          0.160          0.198          0.363          0.238          0.139          0.149          0.107          0.186         -0.025         -0.107         -0.272         -0.148         -0.041         -0.531         -0.656         -0.245         -0.222         -0.280          1.381         -0.137         -0.157         -0.087          0.064         -0.015         -0.051          0.026         -0.057          0.164         -2.697          0.233          0.251          0.283          3.619          0.402          0.779          0.635          0.002         -0.259         38.352          0.540         -0.312         -0.743         -0.306         -0.241         -0.161         -0.399         -0.301         -0.215         -0.362         -0.201         -0.241         -0.142         -0.129         -0.133         -0.097          1.103         -1.071         -0.075         -0.060         -0.048         -0.033         -0.025          0.001          0.012          0.017          0.003         -0.022         -0.014         -0.003         -0.005          0.041          0.004          0.013          0.007          0.038          0.058         -0.129         -0.953          0.097          0.128          0.117          0.121          0.172          0.162          0.188          0.143          0.276          0.218          0.141          0.101          0.136          0.072         -0.070         -0.103         -0.062         -0.149         -0.208         -0.128         -0.150         -0.039          0.026         -0.085          0.052          0.003          0.050          1.600          0.121         -0.007          0.058          0.144          0.115          0.054         -0.131         -0.008          0.177          2.003          0.781          0.426          0.125         -0.014          2.933          0.173         -0.019         -0.082          1.230          0.005         -0.131         -0.130         -0.278         -0.226         -0.164         -0.148         -0.158         -0.111         -0.080         -0.099         -0.062         -0.047         -0.451         -0.059         -0.023         -0.029         -0.039         -0.043         -0.307         -0.031         -0.177         -0.083         -0.026         -0.026         -0.001         -0.018          0.026          0.037         -0.433          0.672         -0.264         -0.204          0.072          0.097          0.103          0.104          0.118          0.163          0.161          0.161          0.202          0.212          0.203          0.162          0.185          0.184          0.241          0.607          0.042         -0.091          1.259          0.848         -0.102         -0.337          1.813         -0.183         -0.143         -0.296         -0.203         -0.224          0.050          0.020          0.056         -0.034          0.113         -0.146          0.256          0.350          1.970          0.288          0.334          0.844          0.402          0.272          0.874          0.642         -0.028         -0.489         -2.407         -0.255         -0.521         -0.222         -0.245         -0.248         -0.240         -0.140         -0.140         -0.147         -0.104         -0.114         -0.120         -0.064         -0.089          0.000          0.552         -0.025         -0.620         -0.301         -0.014         -0.010         -0.020         -0.370          0.502        139.360
       9000.000         -1.232         -0.002          0.072          0.078          0.007         -0.093         -0.173         -0.033         -0.039         -0.099         -0.036         -0.034         -0.042         -0.053         -0.041         -0.378          0.547         -0.130          0.022          0.042         -0.061          0.053          0.076          0.061          0.145          0.104          0.110          0.144          0.135          0.194          0.086          0.162          0.177          0.274          0.107          0.156          0.204          0.253          0.122          0.065         -0.039         -0.168          0.267         -0.050         -0.547         -0.592         -0.232         -0.245         -0.318          1.923         -0.124         -0.156         -0.066          0.071         -0.024         -0.041          0.044         -0.077          0.164         -2.568          0.223          0.295          0.270          3.476          0.382          0.860          0.372         -0.104         -0.107         38.112          0.536         -0.247         -0.363          0.108         -0.079         -0.126         -0.325         -0.187         -0.207         -0.303         -0.165         -0.176         -0.127         -0.117         -0.109         -0.085          1.042         -1.024         -0.053         -0.057         -0.044         -0.029         -0.025         -0.013          0.011          0.016         -0.011         -0.027         -0.020          0.006         -0.007          0.036          0.015          0.012          0.015          0.042          0.057         -0.106         -0.864          0.097          0.130          0.134          0.102          0.157          0.139          0.166          0.154          0.287          0.189          0.133          0.088          0.127          0.073         -0.062         -0.000         -0.126         -0.146         -0.190         -0.203         -0.128         -0.121          0.012         -0.158         -0.054          0.000          0.022          1.614          0.081          0.057          0.075          0.289         -0.042          0.010         -0.137         -0.032          0.169          2.100          0.630          0.606          0.112          0.024          3.113          0.104         -0.019         -0.075          0.988          0.008         -0.151         -0.159         -0.262         -0.193         -0.146         -0.148         -0.165         -0.072         -0.066         -0.088         -0.050         -0.057         -0.402         -0.055         -0.026         -0.020         -0.036         -0.031         -0.199          0.010         -0.132         -0.110         -0.023         -0.035          0.007         -0.016          0.027          0.033         -0.393          0.673         -0.282         -0.251          0.060          0.086          0.094          0.107          0.116          0.126          0.148          0.126          0.152          0.173          0.182          0.156          0.162          0.187          0.222          0.778          0.014         -0.085          0.789          0.814         -0.090         -0.317          1.975         -0.129         -0.157         -0.224         -0.222         -0.244          0.047          0.018          0.056         -0.052          0.057         -0.145          0.252          0.312          1.938          0.323          0.544          0.827          0.419          0.347          1.578          0.631         -0.108         -0.598         -0.728         -0.128         -0.347         -0.244         -0.210         -0.204         -0.200         -0.121         -0.126         -0.140         -0.096         -0.094         -0.114         -0.049         -0.076          0.007          0.666         -0.018         -0.292         -0.154         -0.015         -0.017         -0.000         -0.216          0.332        144.424
      12000.000         -1.209          0.039          0.075          0.049          0.024         -0.119         -0.190         -0.052         -0.049         -0.103          0.024         -0.034         -0.052         -0.076         -0.054         -0.442          0.550         -0.181          0.010          0.042         -0.084          0.063          0.071          0.087          0.170          0.101          0.123          0.132          0.146          0.221          0.133          0.153          0.155          0.255          0.361          0.144          0.126          0.113          0.165         -0.050         -0.006         -0.278          0.014         -0.052         -0.557         -0.612         -0.276         -0.187         -0.310          2.043         -0.139         -0.193         -0.011         -0.130         -0.060         -0.015          0.007         -0.098          0.134         -2.371          0.218          0.288          0.271          3.160          0.359          0.752          0.512         -0.014         -0.192         37.904          0.844         -0.176         -0.323         -0.531         -0.156         -0.148         -0.405         -0.294         -0.205         -0.377         -0.203         -0.231         -0.139         -0.145         -0.126         -0.091          1.116         -1.140         -0.054         -0.071         -0.048         -0.031         -0.028         -0.006          0.009          0.015         -0.011         -0.015         -0.023          0.004         -0.007          0.042          0.006         -0.000         -0.005          0.057          0.092         -0.114         -0.848          0.092          0.130          0.113          0.192          0.179          0.150          0.174          0.150          0.307          0.168          0.099          0.091          0.155          0.041         -0.109         -0.119         -0.135         -0.146         -0.182         -0.136         -0.111         -0.058          0.074         -0.119          0.096          0.098          0.011          1.378          0.112         -0.003          0.086          0.209          0.275          0.018         -0.102          0.022          0.164          2.000          0.607          0.413          0.149         -0.008          2.984          0.268         -0.007         -0.046          2.331          0.068         -0.144         -0.160         -0.318         -0.199         -0.182         -0.163         -0.180         -0.110         -0.086         -0.104         -0.047         -0.059         -0.447         -0.059         -0.038         -0.033         -0.041         -0.046         -0.152         -0.014         -0.130         -0.046         -0.036         -0.040         -0.001         -0.014          0.036          0.037         -0.341          0.726         -0.302         -0.443          0.080          0.089          0.144          0.119          0.121          0.154          0.154          0.152          0.202          0.226          0.239          0.222          0.244          0.228          0.212          0.592          0.073         -0.099          0.776          1.122         -0.153         -0.384          3.175         -0.200         -0.177         -0.240         -0.188         -0.199          0.073         -0.001          0.066         -0.054          0.049         -0.172          0.298          0.298          2.260          0.329          0.498          0.865          0.431          0.306          1.357          0.543         -0.044         -0.483         -2.353         -0.222         -0.710         -0.444         -0.277         -0.235         -0.294         -0.124         -0.137         -0.154         -0.121         -0.106         -0.128         -0.062         -0.083          0.013          0.532         -0.031         -0.721         -0.222         -0.014         -0.002         -0.032         -0.187          0.467        146.492
      15000.000         -1.133          0.037          0.160          0.075          0.062         -0.064         -0.147         -0.029         -0.056         -0.102         -0.006         -0.035         -0.061         -0.069         -0.028         -0.459          0.567         -0.292          0.019          0.032         -0.075          0.058          0.056          0.114          0.119          0.098          0.125          0.122          0.138          0.245          0.114          0.148          0.173          0.270          0.258          0.187          0.144          0.168          0.061         -0.059         -0.072         -0.241         -0.051         -0.100         -0.503         -0.597         -0.211         -0.230         -0.296          2.225         -0.148         -0.176          0.026          0.064          0.003          0.029         -0.080         -0.112          0.156         -2.571          0.204          0.199          0.279          3.366          0.385          0.744          0.689          0.002         -0.130         44.401          0.749         -0.207         -0.341         -0.659         -0.225         -0.165         -0.423         -0.314         -0.202         -0.366         -0.207         -0.219         -0.136         -0.137         -0.123         -0.097          1.108         -1.070         -0.050         -0.076         -0.051         -0.036         -0.026         -0.006          0.012          0.018         -0.019         -0.028         -0.003          0.010         -0.005          0.025         -0.003         -0.024          0.046          0.056          0.074         -0.143         -0.886          0.087          0.125          0.114          0.098          0.183          0.150          0.179          0.150          0.283          0.117          0.104          0.067          0.139          0.034         -0.140         -0.074         -0.041         -0.130         -0.170         -0.154         -0.112         -0.113         -0.004         -0.138          0.076          0.061         -0.072          1.615          0.092          0.084          0.076          0.170          0.435          0.075         -0.120         -0.042          0.131          1.760          0.702          0.380          0.126          0.112          2.978          0.248         -0.017         -0.082          1.652          0.132         -0.072         -0.161         -0.283         -0.202         -0.190         -0.160         -0.163         -0.113         -0.086         -0.112         -0.072         -0.064         -0.422         -0.056         -0.025         -0.029         -0.037         -0.037         -0.159         -0.016         -0.092         -0.294         -0.031         -0.051         -0.007         -0.019          0.030          0.040         -0.332          0.679         -0.251         -0.277          0.075          0.094          0.102          0.123          0.128          0.145          0.158          0.160          0.204          0.205          0.235          0.165          0.214          0.218          0.210          0.598          0.044         -0.113          0.785          0.689         -0.163         -0.334          2.431         -0.187         -0.149         -0.105         -0.206         -0.150          0.059          0.025          0.041         -0.048          0.114         -0.168          0.261          0.326          1.789          0.299          0.541          0.766          0.372          0.244          0.633          0.547          0.008         -0.574         -2.122         -0.259         -0.564         -0.279         -0.258         -0.226         -0.228         -0.130         -0.136         -0.154         -0.101         -0.111         -0.118         -0.044         -0.105         -0.000          0.527         -0.042         -0.496         -0.149         -0.015         -0.018         -0.027         -0.187          0.335        147.010
      18000.000         -1.211          0.024          0.110          0.095          0.028         -0.125         -0.154         -0.076         -0.049         -0.113         -0.020         -0.024         -0.063         -0.078         -0.034         -0.346          0.547         -0.332          0.011          0.033         -0.063          0.059          0.068          0.099          0.165          0.118          0.133          0.171          0.154          0.223          0.184          0.141          0.150          0.169          0.357          0.121          0.149          0.276          0.055         -0.027         -0.017         -0.237          0.147         -0.069         -0.253         -0.594         -0.274         -0.284         -0.325          2.373         -0.123         -0.171         -0.082          0.014          0.044          0.101         -0.077         -0.089          0.171         -2.688          0.197          0.190          0.224          3.372          0.322          0.883          0.666         -0.013         -0.109         36.318          0.690         -0.085         -0.567         -0.473         -0.248         -0.166         -0.353         -0.283         -0.202         -0.400         -0.183         -0.227         -0.143         -0.139         -0.132         -0.093          1.085         -1.142         -0.064         -0.072         -0.048         -0.030         -0.037         -0.001          0.003          0.011         -0.023         -0.027         -0.032          0.003         -0.002          0.025          0.000          0.003         -0.014          0.047          0.061         -0.103         -0.852          0.104          0.132          0.128          0.173          0.166          0.152          0.176          0.149          0.255          0.176          0.139          0.099          0.105          0.051         -0.087         -0.026         -0.140         -0.116         -0.125         -0.085         -0.119         -0.105          0.011         -0.060          0.088          0.044         -0.025          1.756          0.049          0.001         -0.001          0.060          0.019          0.354         -0.103         -0.009          0.168          2.034          0.572          0.403          0.082          0.057          2.994          0.346         -0.009         -0.040          1.489          0.054         -0.082         -0.151         -0.289         -0.238         -0.162         -0.168         -0.170         -0.099         -0.082         -0.107         -0.046         -0.061         -0.401         -0.063         -0.031         -0.025         -0.043         -0.036         -0.204         -0.003         -0.189         -0.200         -0.042         -0.042         -0.005         -0.020          0.032          0.041         -0.653          0.747         -0.312         -0.397          0.068          0.114          0.071          0.114          0.125          0.149          0.151          0.144          0.235          0.232          0.250          0.185          0.186          0.222          0.216          0.410          0.041         -0.089          0.779          0.787         -0.120         -0.277          2.261         -0.172         -0.196         -0.200         -0.188         -0.225          0.049         -0.013          0.057         -0.039          0.108         -0.091          0.337          0.371          2.407          0.343          0.317          0.783          0.417          0.218          0.848          0.477         -0.085         -0.510         -2.303         -0.318         -0.594         -0.334         -0.203         -0.191         -0.278         -0.141         -0.117         -0.151         -0.112         -0.115         -0.104         -0.054         -0.107         -0.002          0.771         -0.024         -0.360         -0.152         -0.012         -0.025         -0.028         -0.203          0.259        140.842