# Time	LEU-41	ALA-42	ILE-43	VAL-44	PHE-45	GLY-46	ASN-47	GLY-48	LEU-49	VAL-50	CYS-51	MET-52	ALA-53	VAL-54	LEU-55	LYS-56	GLU-57	ARG-58	ALA-59	LEU-60	GLN-61	THR-62	THR-63	THR-64	ASN-65	TYR-66	LEU-67	VAL-68	VAL-69	SER-70	LEU-71	ALA-72	VAL-73	ALA-74	ASH-75	LEU-76	LEU-77	VAL-78	ALA-79	THR-80	LEU-81	VAL-82	MET-83	PRO-84	TRP-85	VAL-86	VAL-87	TYR-88	LEU-89	GLU-90	VAL-91	THR-92	GLY-93	GLY-94	VAL-95	TRP-96	ASN-97	PHE-98	SER-99	ARG-100	ILE-101	CYS-102	CYX-103	ASP-104	VAL-105	PHE-106	VAL-107	THR-108	LEU-109	ASP-110	VAL-111	MET-112	MET-113	CYS-114	THR-115	ALA-116	SER-117	ILE-118	TRP-119	ASN-120	LEU-121	CYS-122	ALA-123	ILE-124	SER-125	ILE-126	ASP-127	ARG-128	TYR-129	THR-130	ALA-131	VAL-132	VAL-133	MET-134	PRO-135	VAL-136	HID-137	TYR-138	GLN-139	HID-140	GLY-141	THR-142	GLY-143	GLN-144	SER-145	SER-146	CYS-147	ARG-148	ARG-149	VAL-150	ALA-151	LEU-152	MET-153	ILE-154	THR-155	ALA-156	VAL-157	TRP-158	VAL-159	LEU-160	ALA-161	PHE-162	ALA-163	VAL-164	SER-165	CYS-166	PRO-167	LEU-168	LEU-169	PHE-170	GLY-171	PHE-172	ASN-173	THR-174	THR-175	GLY-176	ASP-177	PRO-178	THR-179	VAL-180	CYX-181	SER-182	ILE-183	SER-184	ASN-185	PRO-186	ASP-187	PHE-188	VAL-189	ILE-190	TYR-191	SER-192	SER-193	VAL-194	VAL-195	SER-196	PHE-197	TYR-198	LEU-199	PRO-200	PHE-201	GLY-202	VAL-203	THR-204	VAL-205	LEU-206	VAL-207	TYR-208	ALA-209	ARG-210	ILE-211	TYR-212	VAL-213	VAL-214	LEU-215	LYS-216	GLN-217	ARG-218	ARG-219	ARG-220	LYS-221	GLY-319	VAL-320	PRO-321	LEU-322	ARG-323	GLU-324	LYS-325	LYS-326	ALA-327	THR-328	GLN-329	MET-330	VAL-331	ALA-332	ILE-333	VAL-334	LEU-335	GLY-336	ALA-337	PHE-338	ILE-339	VAL-340	CYS-341	TRP-342	LEU-343	PRO-344	PHE-345	PHE-346	LEU-347	THR-348	HIE-349	VAL-350	LEU-351	ASN-352	THR-353	HID-354	CYX-355	GLN-356	THR-357	CYX-358	HID-359	VAL-360	SER-361	PRO-362	GLU-363	LEU-364	TYR-365	SER-366	ALA-367	THR-368	THR-369	TRP-370	LEU-371	GLY-372	TYR-373	VAL-374	ASN-375	SER-376	ALA-377	LEU-378	ASN-379	PRO-380	VAL-381	ILE-382	TYR-383	THR-384	THR-385	PHE-386	ASN-387	ILE-388	GLU-389	PHE-390	ARG-391	LYS-392	ALA-393	PHE-394	LEU-395	LYS-396	ILE-397	DPN-14602	
          0.000          0.001          0.009         -0.188         -0.005          0.076          0.030          0.000         -0.019         -0.012         -0.022         -0.060          0.015          0.000         -0.001         -0.067          0.161          0.175          0.292          0.178         -0.004          0.058          0.076          0.000          0.017          0.043         -0.040          0.000         -0.009         -0.014          0.002          0.005          0.000          0.020          0.000         -0.017          0.070          0.000         -0.010          0.003          0.065          0.034         -0.019          0.073         -0.002          0.032         -0.092          0.114         -0.014         -0.006         -0.126         -0.077         -0.211         -0.118          0.070         -0.182          0.012         -0.205          0.010         -0.018         -0.050         -0.063          0.111          0.015         -0.048          0.061          0.013          0.006          0.007          0.046         -4.261          0.768          0.096          0.009         -8.090         -5.347          0.000         -0.006          0.004          0.050          0.000         -0.001         -0.001         -0.041          0.004          0.000         -0.051          0.000          0.033         -0.049         -0.047          0.000          0.009         -0.002         -0.034          0.104          0.269          0.050         -0.021          0.155          0.286         -0.073         -0.041          0.123          0.173         -0.058          0.050         -0.001         -0.055          0.116          0.035         -0.075         -0.017         -0.036          0.016         -0.049         -0.011         -0.001          0.035         -0.072          0.047          0.000          0.062         -0.040          0.004          0.000         -0.012          0.023          0.000          0.025          0.006         -0.126         -0.039         -0.005         -0.192         -0.062         -0.168         -0.240         -0.150         -0.175         -0.070          0.018         -0.049         12.342         -0.145         -0.042         -0.190         -0.070         -0.005          4.825         -0.087         -0.127          9.222          2.121          0.002          0.020         -1.363          0.027         -0.049         -0.056          0.013          0.010         -0.064          0.032         -0.013          0.004         -0.070         -0.007         -0.047         -0.075         -0.143         -0.010         -0.179         -0.112          0.079          0.025          0.091          0.130          0.106         -0.200          0.184          0.261          0.063          0.042          0.240          0.275          0.359          0.045          0.022          0.053          0.023         -0.004         -0.039          0.050          0.006         -0.024          0.038          0.030         -0.050          0.012          0.013          0.007          0.007          0.026         -0.006         -4.389          0.036         -0.015         -3.526        -14.423          0.031          0.001          5.703          0.024          0.019         -0.254         -0.142         -0.014          0.012         -0.208         -0.051         -0.180          0.102         -0.036         -0.022         -0.284         -0.029          0.081         -0.116         -0.118          0.102          0.041          3.195          0.070          0.040         -0.005         -1.135         -0.058          0.000         -0.010         -0.036         -0.021          0.030          0.008         -0.015         -0.038          0.000          0.015          0.086          0.165         -0.004          0.159          0.023          0.004          0.104          0.226          0.121          0.023         -0.186         -0.134          0.331       -101.551
       3000.000         -0.029          0.026         -0.162         -0.046          0.105          0.030          0.000         -0.021          0.061         -0.020         -0.088          0.001          0.000          0.000         -0.125          0.192          0.180          0.201          0.179         -0.002          0.022          0.061          0.018          0.000          0.006         -0.023          0.000         -0.021         -0.032          0.003          0.000          0.003          0.060          0.000          0.005          0.051          0.007         -0.012          0.036          0.048          0.015         -0.019         -0.003          0.039          0.109         -0.076          0.108          0.052         -0.004         -0.065         -0.020         -0.147         -0.165          0.008         -0.190         -0.015         -0.184         -0.000         -0.117         -0.044         -0.060          0.091          0.006         -0.029          0.100         -0.021          0.000          0.007          0.055          0.841         -1.125          0.043         -0.010         -8.428         -0.625          0.000         -0.007          0.028          0.031          0.000          0.003         -0.021         -0.022         -0.011          0.000         -0.064          0.000          0.009         -0.106         -0.030          0.000          0.023          0.116          0.013          0.038          0.179          0.039         -0.005          0.235          0.204         -0.059          0.004          0.132          0.217         -0.046          0.039          0.027          0.033          0.145          0.015         -0.009         -0.082         -0.035          0.012         -0.008          0.003          0.001          0.000         -0.015          0.048          0.000          0.136         -0.049          0.020          0.000         -0.071          0.001          0.000          0.053          0.083         -0.127         -0.026         -0.005         -0.182         -0.018         -0.155         -0.236         -0.168         -0.159         -0.088          0.023          0.035          8.065         -0.117         -0.029         -0.265         -0.073         -0.007          5.124         -0.081         -0.094          8.367          1.038         -0.009          0.003          0.868          0.016         -0.014         -0.047          0.007          0.016         -0.080          0.013         -0.008         -0.018         -0.140          0.010         -0.057         -0.059         -0.147          0.000         -0.192         -0.109          0.115          0.012          0.011         -0.003          0.171         -0.014          0.214          0.243          0.070          0.047          0.217          0.217          0.225          0.017          0.099          0.036          0.011          0.002         -0.052          0.020         -0.031         -0.039          0.043          0.014         -0.010          0.026          0.008          0.024          0.068          0.063          0.000        -10.178          0.059          0.021         -1.688         -8.870          0.007         -0.001          9.469          0.004          0.106         -0.229         -0.127         -0.068         -0.027         -0.267          0.017         -0.216          0.031         -0.050         -0.005         -0.288         -0.002          0.142         -0.151         -0.151          0.065          0.034          0.772          0.029          0.028          0.000          0.544          0.049          0.000          0.000         -0.025         -0.057          0.016          0.009         -0.011         -0.014         -0.005         -0.013         -0.003          0.039          0.007          0.037          0.101         -0.013          0.045          0.226          0.113          0.065         -0.223          0.138          0.091        -97.679
       6000.000          0.007          0.033         -0.094          0.007          0.065          0.024          0.009         -0.012          0.038         -0.024         -0.036          0.040          0.000          0.000         -0.126          0.193          0.120          0.221          0.136         -0.001          0.081          0.091          0.000          0.009          0.054         -0.020          0.000         -0.015         -0.003          0.004          0.017          0.010          0.042          0.000         -0.025          0.019          0.064         -0.015          0.003          0.041         -0.108         -0.004         -0.007          0.007          0.160         -0.065          0.131          0.039         -0.006          0.038         -0.047         -0.143         -0.148          0.022         -0.212         -0.026         -0.187          0.000         -0.046         -0.063         -0.056          0.124         -0.001         -0.029          0.129          0.019          0.008          0.024         -0.028         -0.730         -0.141         -0.013          0.004        -11.387         -2.874          0.000         -0.024          0.018          0.044          0.000          0.011         -0.011         -0.019          0.000          0.000         -0.100          0.000          0.020         -0.058         -0.039          0.000          0.025          0.057         -0.047          0.096          0.216         -0.042          0.017          0.194          0.227         -0.067          0.027          0.106          0.247         -0.013          0.026         -0.009         -0.017          0.074          0.003         -0.035         -0.000          0.002         -0.018         -0.017         -0.004          0.007          0.086         -0.041          0.031          0.000          0.019         -0.044          0.008          0.000          0.013         -0.009          0.000         -0.015         -0.003         -0.110         -0.064         -0.013         -0.177         -0.033         -0.120         -0.222         -0.157         -0.165         -0.124          0.013          0.026         14.404         -0.157         -0.044         -0.249         -0.077         -0.008          6.956         -0.074         -0.194          5.007         -1.401         -0.035          0.005          0.657          0.000         -0.103         -0.069          0.001         -0.024         -0.069          0.033         -0.011         -0.024         -0.026         -0.020         -0.042         -0.052         -0.117         -0.020         -0.120         -0.077          0.069         -0.018          0.074         -0.046          0.165         -0.068          0.239          0.194          0.035          0.028          0.180          0.254          0.127         -0.003          0.034         -0.061          0.034         -0.001          0.032          0.057         -0.018         -0.031         -0.025         -0.001         -0.028          0.005          0.020          0.026          0.054          0.042          0.006         -8.590          0.053          0.017         -1.666         -4.313         -0.085         -0.016          3.632         -0.002          0.138         -0.237         -0.149         -0.011         -0.029         -0.188         -0.056         -0.201          0.062         -0.065         -0.018         -0.219         -0.004          0.086         -0.157         -0.134          0.063          0.014          4.592         -0.057         -0.003          0.000         -0.017         -0.002         -0.005          0.001         -0.009         -0.050          0.051          0.017         -0.037         -0.028         -0.008         -0.023         -0.030          0.064          0.021          0.124          0.127          0.000          0.152          0.326          0.156          0.093         -0.228         -0.040          0.242        -91.206
       9000.000          0.013          0.037         -0.116         -0.021          0.104          0.013          0.015         -0.017         -0.006         -0.017         -0.083          0.019          0.000         -0.009         -0.066          0.212          0.190          0.133          0.097         -0.013          0.169          0.056          0.022          0.000          0.021         -0.077          0.000         -0.069         -0.015         -0.002          0.031          0.000          0.080         -0.014         -0.015          0.070          0.022          0.037          0.004          0.037         -0.105         -0.005          0.013          0.014          0.132         -0.119          0.132          0.016          0.011         -0.056         -0.060         -0.162         -0.093          0.050         -0.199         -0.018         -0.184          0.004         -0.025         -0.032         -0.032          0.100          0.028         -0.028          0.100          0.040          0.000          0.013          0.022         -0.711          0.149         -0.010         -0.004        -10.227         -2.116          0.000         -0.011          0.018          0.057          0.000          0.000         -0.021         -0.024          0.000          0.008         -0.075          0.000         -0.002         -0.076         -0.067          0.000          0.025          0.008         -0.054          0.060          0.240          0.056         -0.005          0.239          0.224         -0.107          0.014          0.141          0.215          0.007          0.050         -0.014         -0.042          0.099          0.011         -0.024         -0.065         -0.051         -0.014         -0.066          0.018         -0.002          0.045         -0.032         -0.000          0.001          0.037         -0.048          0.012          0.000          0.029         -0.015          0.000          0.016          0.008         -0.170         -0.032         -0.027         -0.156         -0.094         -0.097         -0.221         -0.176         -0.152         -0.079         -0.010          0.040         11.361         -0.133         -0.066         -0.196         -0.128         -0.003          7.090         -0.071         -0.086          8.474         -0.005         -0.030          0.007          0.000          0.035         -0.077         -0.035          0.005         -0.029         -0.086          0.064         -0.005         -0.038         -0.060         -0.051         -0.066         -0.043         -0.189         -0.018         -0.162         -0.017          0.045         -0.019          0.154          0.014          0.209         -0.053          0.179          0.205          0.018          0.033          0.218          0.302          0.265         -0.010          0.117          0.009          0.048         -0.010         -0.059          0.042         -0.022         -0.029         -0.064         -0.011          0.026          0.024          0.040          0.010          0.054          0.072         -0.022         -4.547          0.046         -0.006          1.565         -2.488         -0.005          0.003          7.897          0.033          0.031         -0.218         -0.151          0.013         -0.020         -0.198         -0.068         -0.222          0.105         -0.015         -0.017         -0.242         -0.022          0.106         -0.147         -0.111          0.066          0.034          3.622          0.018          0.007          0.000          1.343          0.017         -0.003          0.000         -0.030         -0.085          0.019          0.000         -0.019          0.022          0.011          0.001          0.008          0.226          0.011          0.190          0.094          0.000          0.098          0.283          0.172          0.060         -0.075         -0.094          0.030        -99.139
      12000.000         -0.012          0.073         -0.109         -0.025          0.080          0.005          0.000         -0.014         -0.015         -0.015         -0.038         -0.016          0.000         -0.004         -0.083          0.182          0.183          0.184          0.146          0.012          0.078          0.069          0.023          0.023          0.045         -0.055          0.000         -0.018         -0.007         -0.005          0.007         -0.004          0.044         -0.006         -0.008          0.032          0.035          0.010          0.009          0.053         -0.070          0.014          0.008          0.013          0.155         -0.067          0.153          0.037          0.002         -0.119         -0.017         -0.138         -0.128          0.039         -0.146         -0.035         -0.291          0.047         -0.042         -0.077         -0.041          0.112          0.030         -0.057          0.108          0.011          0.009          0.003          0.055         -4.175          0.952          0.012         -0.013         -3.081         -3.728          0.000         -0.008         -1.984          0.012         -0.010         -0.018         -0.045         -0.018          0.005          0.019         -0.042          0.000          0.008         -0.049         -0.054          0.000          0.026          0.066         -0.025          0.102          0.225         -0.019          0.019          0.247          0.243         -0.070          0.013          0.104          0.196         -0.107         -0.011          0.019         -0.002          0.075          0.029         -0.027         -0.066         -0.061         -0.034         -0.009         -0.016          0.016          0.011         -0.022          0.009          0.000          0.064         -0.068          0.007          0.000         -0.021          0.004          0.000         -0.018         -0.027         -0.151          0.020         -0.004         -0.189         -0.067         -0.198         -0.205         -0.120         -0.089         -0.064         -0.001          0.009          6.305         -0.111         -0.005         -0.181         -0.106         -0.013         -0.012         -0.088         -0.135          3.830         -0.010         -0.044          0.009         -0.088         -0.167         -0.034         -0.038          0.042         -0.029         -0.098          0.018         -0.023         -0.039         -0.074          0.008         -0.133         -0.039         -0.085          0.000         -0.017         -0.050          0.061          0.062          0.114         -0.038          0.173         -0.113          0.194          0.270          0.055          0.011          0.206          0.265          0.177         -0.012          0.059          0.026          0.023         -0.016          0.069          0.038         -0.008         -0.027          0.014          0.024         -0.013          0.029          0.014          0.001          0.059          0.081          0.000         -3.246          0.044          0.029          1.552         -9.257         -0.001          0.000         11.468          0.009          0.100         -0.188         -0.142         -0.025          0.006         -0.262         -0.077         -0.215          0.136         -0.052          0.007         -0.258         -0.064          0.116         -0.095         -0.127          0.071          0.027          4.607          0.023          0.007         -0.008         -1.515          0.029          0.013          0.010         -0.017         -0.102          0.015         -0.005          0.010          0.003         -0.027         -0.009         -0.008          0.069          0.015          0.171          0.118          0.000         -0.013          0.233          0.113          0.071         -0.163          0.066          0.167        -95.803
      15000.000          0.047          0.031         -0.218         -0.050          0.100          0.026         -0.012         -0.008          0.019         -0.014         -0.042          0.016          0.000          0.000         -0.051          0.165          0.202          0.263          0.147         -0.001          0.051          0.026          0.024         -0.003          0.048         -0.020          0.000         -0.018          0.025         -0.008          0.003          0.015          0.037         -0.008          0.015          0.043          0.050         -0.015          0.013          0.062         -0.088         -0.002          0.100          0.020          0.114         -0.020          0.167          0.029         -0.005         -0.059         -0.021         -0.209         -0.084          0.006         -0.274         -0.044         -0.232         -0.051         -0.050         -0.047         -0.050          0.081          0.004         -0.025          0.101          0.007          0.010          0.006          0.039         -3.467         -1.989          0.024          0.001         -7.784         -0.243          0.000         -0.014          0.025          0.042          0.000         -0.001         -0.020         -0.020          0.004          0.008         -0.021          0.000          0.012         -0.062         -0.071          0.000          0.024         -0.043         -0.065          0.095          0.236          0.018         -0.010          0.292          0.270         -0.055         -0.003          0.135          0.071         -0.030          0.087          0.054         -0.041          0.092          0.028         -0.040         -0.042          0.010         -0.015         -0.036         -0.006         -0.003          0.033          0.025          0.026          0.000          0.009         -0.033          0.005          0.000         -0.012         -0.001         -0.028          0.036         -0.019         -0.176         -0.032         -0.008         -0.219         -0.067         -0.182         -0.223         -0.095         -0.070         -0.147         -0.024          0.026          5.328         -0.164         -0.035         -0.249         -0.042         -0.007         -0.012         -0.127         -0.129          9.444          0.961         -0.048          0.011          0.919          0.027         -0.045         -0.009          0.004         -0.011         -0.076          0.019         -0.002         -0.004         -0.086         -0.011         -0.055         -0.076         -0.077         -0.009         -0.154         -0.050         -0.003          0.005          0.045         -0.066          0.164          0.089          0.151          0.224          0.061          0.027          0.243          0.253          0.278          0.051          0.069         -0.044          0.037          0.000          0.016          0.039         -0.007          0.015         -0.010          0.008         -0.017          0.031         -0.002          0.018          0.057          0.059          0.015         -6.317          0.003         -0.004          2.718         -6.744         -0.016          0.003          5.494          0.016          0.011         -0.177         -0.158          0.017          0.023         -0.162         -0.052         -0.177          0.138         -0.125         -0.018         -0.259         -0.030          0.132         -0.129         -0.100          0.095          0.020         -0.330         -0.016          0.049          0.000          1.467          0.010          0.000          0.011         -0.068         -0.033          0.021          0.016         -0.005         -0.011         -0.015         -0.026          0.029          0.018          0.007          0.145          0.052          0.014          0.101          0.223          0.071          0.058         -0.148          0.148         -0.012        -90.258
      18000.000          0.072          0.044         -0.139         -0.084          0.101          0.062          0.000         -0.009         -0.076         -0.010         -0.034         -0.052          0.000         -0.004         -0.060          0.173          0.148          0.194          0.233         -0.016          0.072          0.052          0.007          0.000          0.007         -0.079         -0.012         -0.021          0.029          0.004          0.012          0.003          0.063         -0.008          0.008          0.024          0.031         -0.023          0.004          0.067         -0.060         -0.005          0.010          0.039          0.109         -0.073          0.145          0.063         -0.008         -0.172          0.004         -0.126         -0.089          0.017         -0.209         -0.026         -0.226          0.080         -0.072         -0.047         -0.067          0.073         -0.000         -0.042          0.059          0.022          0.016          0.017         -0.002         -5.177         -2.643          0.052         -0.014         -8.931         -0.404          0.000         -0.025          0.002          0.054          0.000         -0.018         -0.026         -0.027          0.000          0.013         -0.001         -0.007          0.012         -0.140         -0.061          0.000          0.028         -0.048         -0.058          0.029          0.116         -0.041          0.056          0.196          0.291         -0.069          0.024          0.172          0.204          0.012          0.009          0.009          0.037          0.057          0.025         -0.074         -0.004         -0.047          0.014         -0.000         -0.027         -0.003         -0.026          0.008          0.021          0.000          0.128         -0.064          0.004          0.000          0.035         -0.004         -0.013          0.034         -0.004         -0.172         -0.019          0.000         -0.202         -0.144         -0.207         -0.252         -0.115         -0.149         -0.067         -0.006         -0.068          6.484         -0.120         -0.100         -0.232         -0.097          1.197         -0.020         -0.108         -0.113          8.677          0.878         -0.030         -0.011         -1.223          0.035         -0.089         -0.044          0.014         -0.014         -0.094          0.040         -0.010         -0.038         -0.063          0.008         -0.050         -0.046         -0.004         -0.007         -0.184         -0.082          0.061          0.005          0.026         -0.003          0.258         -0.056          0.106          0.220          0.053          0.047          0.201          0.273          0.209         -0.013          0.077          0.010          0.031         -0.028          0.040          0.000         -0.006          0.003         -0.102          0.016         -0.006          0.005         -0.005          0.011          0.059          0.059          0.007         -4.602          0.073         -0.009         -3.489         -4.350         -0.059         -0.015          9.214          0.032          0.106         -0.203         -0.130         -0.065         -0.018         -0.224         -0.039         -0.194          0.054         -0.054         -0.013         -0.199         -0.036          0.093         -0.109         -0.087          0.054          0.021          2.450          0.057          0.031         -1.286          0.482         -0.005          0.004          0.000         -0.049          0.014          0.024          0.022          0.007         -0.035         -0.005         -0.011          0.053          0.142         -0.005          0.184          0.145          0.014          0.120          0.223          0.074          0.065         -0.223          0.235         -0.046       -101.107