# Time	LEU-41	ALA-42	ILE-43	VAL-44	PHE-45	GLY-46	ASN-47	GLY-48	LEU-49	VAL-50	CYS-51	MET-52	ALA-53	VAL-54	LEU-55	LYS-56	GLU-57	ARG-58	ALA-59	LEU-60	GLN-61	THR-62	THR-63	THR-64	ASN-65	TYR-66	LEU-67	VAL-68	VAL-69	SER-70	LEU-71	ALA-72	VAL-73	ALA-74	ASH-75	LEU-76	LEU-77	VAL-78	ALA-79	THR-80	LEU-81	VAL-82	MET-83	PRO-84	TRP-85	VAL-86	VAL-87	TYR-88	LEU-89	GLU-90	VAL-91	THR-92	GLY-93	GLY-94	VAL-95	TRP-96	ASN-97	PHE-98	SER-99	ARG-100	ILE-101	CYS-102	CYX-103	ASP-104	VAL-105	PHE-106	VAL-107	THR-108	LEU-109	ASP-110	VAL-111	MET-112	MET-113	CYS-114	THR-115	ALA-116	SER-117	ILE-118	TRP-119	ASN-120	LEU-121	CYS-122	ALA-123	ILE-124	SER-125	ILE-126	ASP-127	ARG-128	TYR-129	THR-130	ALA-131	VAL-132	VAL-133	MET-134	PRO-135	VAL-136	HID-137	TYR-138	GLN-139	HID-140	GLY-141	THR-142	GLY-143	GLN-144	SER-145	SER-146	CYS-147	ARG-148	ARG-149	VAL-150	ALA-151	LEU-152	MET-153	ILE-154	THR-155	ALA-156	VAL-157	TRP-158	VAL-159	LEU-160	ALA-161	PHE-162	ALA-163	VAL-164	SER-165	CYS-166	PRO-167	LEU-168	LEU-169	PHE-170	GLY-171	PHE-172	ASN-173	THR-174	THR-175	GLY-176	ASP-177	PRO-178	THR-179	VAL-180	CYX-181	SER-182	ILE-183	SER-184	ASN-185	PRO-186	ASP-187	PHE-188	VAL-189	ILE-190	TYR-191	SER-192	SER-193	VAL-194	VAL-195	SER-196	PHE-197	TYR-198	LEU-199	PRO-200	PHE-201	GLY-202	VAL-203	THR-204	VAL-205	LEU-206	VAL-207	TYR-208	ALA-209	ARG-210	ILE-211	TYR-212	VAL-213	VAL-214	LEU-215	LYS-216	GLN-217	ARG-218	ARG-219	ARG-220	LYS-221	GLY-319	VAL-320	PRO-321	LEU-322	ARG-323	GLU-324	LYS-325	LYS-326	ALA-327	THR-328	GLN-329	MET-330	VAL-331	ALA-332	ILE-333	VAL-334	LEU-335	GLY-336	ALA-337	PHE-338	ILE-339	VAL-340	CYS-341	TRP-342	LEU-343	PRO-344	PHE-345	PHE-346	LEU-347	THR-348	HIE-349	VAL-350	LEU-351	ASN-352	THR-353	HID-354	CYX-355	GLN-356	THR-357	CYX-358	HID-359	VAL-360	SER-361	PRO-362	GLU-363	LEU-364	TYR-365	SER-366	ALA-367	THR-368	THR-369	TRP-370	LEU-371	GLY-372	TYR-373	VAL-374	ASN-375	SER-376	ALA-377	LEU-378	ASN-379	PRO-380	VAL-381	ILE-382	TYR-383	THR-384	THR-385	PHE-386	ASN-387	ILE-388	GLU-389	PHE-390	ARG-391	LYS-392	ALA-393	PHE-394	LEU-395	LYS-396	ILE-397	DPN-14602	
          0.000         -0.836          0.022          0.052          0.063          0.055         -0.076         -0.210         -0.048         -0.047         -0.092         -0.019         -0.029         -0.056         -0.056         -0.037         -0.340          0.437         -0.095          0.004          0.029         -0.050          0.055          0.024          0.056          0.121          0.092          0.108          0.101          0.136          0.229          0.113          0.124          0.196          0.389          0.111          0.189          0.230          0.288          0.237          0.029         -0.021         -0.232          0.052         -0.124         -0.400         -0.842         -0.308         -0.280         -0.352          2.435         -0.132         -0.121         -0.120         -0.084         -0.002         -0.050          0.059          0.159          0.250         -2.982          0.260          0.366          0.478          4.107          0.414          0.862          0.975          0.095         -0.257         43.028          0.419         -0.340         -0.894         -0.331         -0.213         -0.256         -0.401         -0.181         -0.221         -0.075         -0.146         -0.142         -0.109         -0.106         -0.098         -0.088          1.016         -0.974         -0.059         -0.069         -0.043         -0.047         -0.035         -0.004          0.014          0.002         -0.020         -0.016          0.010          0.000         -0.002          0.043          0.032          0.036          0.043          0.073          0.070         -0.090         -0.307          0.080          0.095          0.110          0.099          0.149          0.109          0.122          0.138          0.252          0.181          0.140          0.157          0.171          0.086          0.077         -0.010         -0.102         -0.117         -0.214         -0.172         -0.140         -0.122         -0.080         -0.264         -0.069         -0.100         -0.021          1.893          0.086          0.052          0.069          0.142         -0.391          0.068          0.444          0.004          0.140          2.424          0.581          0.455          0.062         -0.195          2.304         -0.071         -0.085         -0.119         -0.035         -0.131         -0.151         -0.092         -0.178         -0.159         -0.099         -0.085         -0.098         -0.072         -0.061         -0.081         -0.056         -0.045         -0.374         -0.058         -0.027         -0.027         -0.034         -0.037         -0.090         -0.031         -0.157         -0.140         -0.290         -0.072          0.008         -0.013          0.029          0.036         -0.510          0.683         -0.405         -0.690          0.064          0.070          0.080          0.105          0.107          0.119          0.135          0.129          0.148          0.154          0.196          0.189          0.183          0.181          0.195          0.635          0.035         -0.074          0.305          0.375         -0.095         -0.043          4.504         -0.114         -0.144         -0.130         -0.095          0.045         -0.025         -0.062         -0.046         -0.153         -0.084         -0.081          0.257          0.326          2.176          0.330          0.551          0.546          0.334          0.054          0.941         -0.004         -0.041         -0.596         -1.038         -0.143         -0.424         -0.028         -0.230         -0.166         -0.075         -0.105         -0.105         -0.130         -0.107         -0.092         -0.088         -0.066          0.080          0.010          0.752         -0.018         -0.410         -0.173         -0.018          0.021         -0.009         -0.039          0.061        136.463
       4000.000         -0.909          0.022          0.093          0.071          0.022         -0.084         -0.228         -0.075         -0.060         -0.110         -0.029         -0.047         -0.068         -0.065         -0.042         -0.338          0.458         -0.166          0.005          0.031         -0.056          0.058          0.038          0.064          0.133          0.112          0.122          0.127          0.126          0.165          0.153          0.140          0.163          0.340          0.166          0.193          0.153          0.189          0.144          0.041         -0.135         -0.356         -0.173         -0.114         -0.243         -0.687         -0.259         -0.213         -0.301          2.257         -0.130         -0.133         -0.101         -0.026          0.057          0.003         -0.008          0.088          0.209         -2.085          0.178          0.199          0.286          2.941          0.487          0.717          1.086          0.277         -0.103         42.328          0.887         -0.282         -0.793         -0.598         -0.302         -0.247         -0.475         -0.248         -0.241         -0.036         -0.156         -0.158         -0.117         -0.110         -0.099         -0.097          1.042         -1.051         -0.062          0.001         -0.035         -0.042         -0.032          0.017          0.002         -0.001         -0.013         -0.030          0.009         -0.005          0.003          0.032          0.028          0.023          0.039          0.071          0.066         -0.092         -0.230          0.084          0.122          0.118          0.159          0.168          0.122          0.143          0.140          0.234          0.141          0.093          0.106          0.138          0.045         -0.014         -0.108         -0.008         -0.117         -0.148         -0.151         -0.130         -0.115         -0.040         -0.064         -0.014         -0.069          0.006          1.188          0.085          0.081          0.054          0.127         -0.170          0.046         -0.046         -0.027          0.130          2.495          0.503          0.607          0.184         -0.152          2.599          0.300         -0.048         -0.097          0.037         -0.137         -0.190         -0.128         -0.193         -0.140         -0.120         -0.097         -0.094         -0.080         -0.054         -0.085         -0.061         -0.045         -0.370         -0.062         -0.045         -0.026         -0.030         -0.034         -0.094          0.011         -0.142         -0.173         -0.276         -0.044          0.004         -0.007          0.028          0.040         -0.549          0.728         -0.223         -0.567          0.057          0.079          0.065          0.106          0.103          0.117          0.123          0.120          0.151          0.152          0.196          0.251          0.219          0.210          0.210          0.740          0.100         -0.066          0.785          0.656         -0.088         -0.067          2.936         -0.133         -0.164         -0.200         -0.169          0.078         -0.019         -0.002         -0.058         -0.133         -0.014         -0.054          0.274          0.358          2.209          0.260          0.857          0.525          0.343          0.136          1.187         -0.046         -0.016         -0.533         -2.568         -0.162         -0.460         -0.226         -0.238         -0.198         -0.059         -0.122         -0.109         -0.127         -0.110         -0.096         -0.095         -0.061          0.085          0.004          0.744         -0.028         -0.511         -0.220         -0.018          0.007         -0.012         -0.074          0.148        136.630
       8000.000         -0.840          0.009          0.043          0.048          0.044         -0.056         -0.147         -0.076         -0.038         -0.100         -0.024         -0.021         -0.057         -0.067         -0.037         -0.333          0.449         -0.162          0.008          0.036         -0.061          0.043          0.038          0.041          0.129          0.097          0.111          0.116          0.133          0.169          0.078          0.125          0.178          0.305          0.023          0.212          0.170          0.321          0.165          0.067         -0.110         -0.126         -0.024         -0.117         -0.261         -0.683         -0.237         -0.261         -0.333          3.189         -0.095         -0.121         -0.119          0.022          0.026          0.061          0.024          0.107          0.261         -2.783          0.218          0.306          0.421          3.818          0.420          0.908          1.079          0.060         -0.195         45.190          0.732         -0.156         -0.815         -0.546         -0.251         -0.199         -0.379         -0.231         -0.214         -0.056         -0.149         -0.165         -0.098         -0.105         -0.101         -0.083          1.010         -1.046         -0.046         -0.072         -0.045         -0.042         -0.030         -0.011          0.003         -0.004         -0.020         -0.024         -0.002          0.008         -0.003          0.022          0.024          0.036          0.029          0.058          0.068         -0.076         -0.178          0.089          0.129          0.128          0.161          0.168          0.171          0.146          0.144          0.312          0.186          0.100          0.112          0.142          0.066         -0.025         -0.103         -0.037         -0.104         -0.163         -0.172         -0.144         -0.161         -0.086         -0.136         -0.006         -0.111          0.021          1.892          0.061          0.042          0.076          0.124          0.142          0.061         -0.108         -0.072          0.141          2.421          0.547          0.656          0.183         -0.120          3.399          0.159         -0.075         -0.142         -0.086         -0.105         -0.161         -0.124         -0.187         -0.136         -0.131         -0.099         -0.131         -0.088         -0.058         -0.087         -0.051         -0.041         -0.409         -0.066         -0.038         -0.026         -0.038         -0.042         -0.106         -0.009         -0.136         -0.150         -0.284         -0.082         -0.002         -0.009          0.026          0.038         -0.506          0.711         -0.235         -0.688          0.061          0.087          0.068          0.068          0.100          0.132          0.120          0.129          0.145          0.146          0.160          0.225          0.198          0.199          0.278          0.584          0.023         -0.103          0.658          0.776         -0.132         -0.115          1.736         -0.115         -0.126         -0.100         -0.180          0.062         -0.005          0.058          0.007         -0.120         -0.197         -0.093          0.267          0.323          2.048          0.326          0.496          0.624          0.410          0.092          0.941          0.284         -0.021         -0.522         -1.378         -0.155         -0.476          0.081         -0.231         -0.175         -0.006         -0.099         -0.109         -0.114         -0.110         -0.085         -0.089         -0.052          0.079          0.009          0.801         -0.015         -0.493         -0.228         -0.017          0.013         -0.014         -0.057          0.101        143.126
      12000.000         -0.883         -0.002          0.083          0.052          0.030         -0.067         -0.178         -0.059         -0.042         -0.103         -0.021         -0.028         -0.048         -0.057         -0.031         -0.289          0.413         -0.136          0.008          0.028         -0.059          0.044          0.025          0.056          0.119          0.084          0.105          0.103          0.128          0.209          0.140          0.159          0.207          0.292          0.186          0.210          0.347          0.299          0.159         -0.041         -0.136         -0.081          0.084         -0.124         -0.341         -0.717         -0.177         -0.239         -0.436          3.095         -0.107         -0.171         -0.150         -0.069          0.026          0.040          0.075          0.151          0.294         -3.076          0.277          0.324          0.517          4.269          0.411          0.670          1.007          0.150         -0.125         45.840          0.683         -0.365         -0.611         -0.361         -0.228         -0.276         -0.408         -0.147         -0.210         -0.081         -0.145         -0.158         -0.104         -0.091         -0.108         -0.075          0.892         -0.886         -0.056         -0.061         -0.044         -0.039         -0.029         -0.011         -0.001         -0.006         -0.027         -0.004          0.006          0.003         -0.002          0.029          0.024          0.022          0.029          0.061          0.062         -0.092         -0.208          0.074          0.105          0.122          0.131          0.159          0.125          0.152          0.140          0.289          0.223          0.158          0.133          0.182          0.074          0.027         -0.075         -0.035         -0.090         -0.166         -0.127         -0.103         -0.164         -0.116         -0.232         -0.078         -0.129          0.043          2.021          0.133          0.136          0.082          0.251         -0.239          0.075         -0.077         -0.032          0.128          2.238          0.418          0.298          0.072         -0.128          1.799          0.144         -0.048         -0.099          0.054         -0.085         -0.145         -0.103         -0.132         -0.141         -0.092         -0.105         -0.108         -0.072         -0.062         -0.090         -0.061         -0.047         -0.333         -0.057         -0.026         -0.021         -0.030         -0.035         -0.141          0.009         -0.139         -0.151         -0.280         -0.044         -0.003         -0.008          0.029          0.046         -0.415          0.593         -0.236         -0.596          0.054          0.067          0.081          0.095          0.084          0.106          0.127          0.115          0.150          0.154          0.159          0.156          0.175          0.180          0.160          0.478          0.081         -0.057          0.875          0.631         -0.104         -0.060          2.384         -0.128         -0.133         -0.146         -0.152          0.000          0.023          0.018         -0.097         -0.117         -0.033         -0.008          0.217          0.277          2.024          0.281          0.519          0.433          0.340          0.052          0.256          0.273          0.047         -0.101         -0.685         -0.124         -0.269         -0.212         -0.200         -0.142         -0.173         -0.105         -0.107         -0.114         -0.117         -0.089         -0.085         -0.052          0.074          0.022          0.675         -0.024         -0.373         -0.208         -0.015          0.004         -0.018         -0.128          0.127        136.438
      16000.000         -0.862          0.013          0.105          0.081          0.051         -0.092         -0.154         -0.060         -0.068         -0.113         -0.024         -0.044         -0.064         -0.066         -0.033         -0.365          0.452         -0.170          0.013          0.032         -0.046          0.038          0.034          0.081          0.126          0.093          0.104          0.111          0.144          0.253          0.155          0.159          0.161          0.318          0.262          0.181          0.063          0.104          0.127         -0.073         -0.114         -0.342         -0.102         -0.105         -0.253         -0.711         -0.187         -0.206         -0.332          3.663         -0.129         -0.164         -0.090         -0.020          0.028          0.020          0.005          0.131          0.228         -2.089          0.214          0.216          0.303          3.040          0.397          0.699          1.037          0.130          0.101         38.473          1.127         -0.349         -0.938         -0.695         -0.309         -0.263         -0.450         -0.253         -0.236         -0.177         -0.182         -0.189         -0.109         -0.122         -0.102         -0.081          0.993         -1.056         -0.064         -0.073         -0.052         -0.042         -0.033         -0.022         -0.004         -0.004         -0.010         -0.032          0.008         -0.013         -0.005          0.032          0.026          0.023          0.032          0.066          0.064         -0.097         -0.269          0.084          0.101          0.112          0.082          0.146          0.121          0.137          0.162          0.260          0.200          0.129          0.115          0.136          0.074         -0.015         -0.103         -0.085         -0.097         -0.179         -0.127         -0.131         -0.102         -0.095         -0.193         -0.022         -0.091         -0.011          1.152          0.093          0.023          0.041          0.130         -0.255         -0.002          0.000          0.012          0.136          2.405          0.645          0.421          0.115         -0.105          3.253          0.077         -0.012         -0.135         -0.056         -0.159         -0.161         -0.109         -0.208         -0.164         -0.124         -0.104         -0.155         -0.083         -0.068         -0.088         -0.047         -0.045         -0.365         -0.058         -0.017         -0.025         -0.033         -0.040         -0.118          0.002         -0.139         -0.164         -0.276         -0.047          0.000         -0.008          0.038          0.045         -0.497          0.736         -0.277         -0.674          0.072          0.090          0.101          0.132          0.116          0.146          0.171          0.178          0.205          0.215          0.253          0.263          0.293          0.253          0.268          0.539          0.107         -0.070          0.794          0.528         -0.094         -0.121          1.336         -0.168         -0.205         -0.179         -0.189          0.037          0.014          0.172         -0.125         -0.107         -0.070         -0.038          0.330          0.351          2.339          0.288          0.630          0.864          0.360          0.282          1.626          0.158         -0.103         -0.535         -2.123         -0.260         -0.440         -0.263         -0.248         -0.242         -0.185         -0.117         -0.116         -0.147         -0.111         -0.100         -0.121         -0.058          0.089          0.014          0.763         -0.024         -0.423         -0.233         -0.009         -0.021         -0.021         -0.052          0.083        136.490
      20000.000         -1.071          0.029          0.062          0.077          0.040         -0.088         -0.129         -0.071         -0.057         -0.120         -0.029         -0.034         -0.063         -0.063         -0.047         -0.318          0.417         -0.145          0.004          0.038         -0.064          0.048          0.028          0.059          0.133          0.102          0.129          0.116          0.141          0.179          0.145          0.133          0.183          0.304          0.234          0.192          0.153          0.089          0.103         -0.021         -0.138         -0.478         -0.086         -0.092         -0.182         -0.551         -0.173         -0.156         -0.271          3.110         -0.111         -0.138         -0.110         -0.120          0.072          0.053          0.033          0.078          0.159         -2.008          0.201          0.255          0.284          2.832          0.377          0.716          1.402          0.207         -0.113         43.446          0.591         -0.401         -0.722         -0.622         -0.181         -0.176         -0.453         -0.210         -0.213         -0.072         -0.191         -0.164         -0.118         -0.116         -0.112         -0.088          1.009         -1.050         -0.067         -0.068         -0.051         -0.049         -0.031         -0.012         -0.001         -0.006         -0.020         -0.026         -0.016          0.003         -0.004          0.023          0.031          0.019          0.037          0.061          0.067         -0.098         -0.325          0.076          0.115          0.132          0.077          0.150          0.159          0.117          0.133          0.258          0.160          0.092          0.022          0.112          0.031         -0.073         -0.065          0.077         -0.079         -0.151         -0.118         -0.125         -0.068         -0.033         -0.259          0.130         -0.038          0.019          1.382          0.106          0.068          0.068          0.102         -0.268         -0.004          0.353          0.046          0.103          2.133          0.653          0.397          0.140         -0.062          2.816          0.440         -0.003         -0.089         -0.002         -0.112         -0.231         -0.084         -0.158         -0.109         -0.113         -0.112         -0.131         -0.104         -0.057         -0.097         -0.064         -0.051         -0.395         -0.062         -0.026         -0.021         -0.025         -0.032         -0.089         -0.008         -0.101         -0.277         -0.304         -0.058          0.009         -0.008          0.030          0.039         -0.517          0.696         -0.220         -0.547          0.068          0.092          0.064          0.122          0.127          0.150          0.140          0.183          0.211          0.188          0.237          0.307          0.290          0.268          0.248          0.180          0.128         -0.103          0.649          0.588         -0.098         -0.117          1.959         -0.163         -0.195         -0.544         -0.215          0.037         -0.031         -0.003         -0.142         -0.177         -0.103         -0.078          0.331          0.405          2.355          0.352          0.779          0.612          0.552          0.298          1.207          0.492         -0.042         -0.736         -2.913         -0.221         -0.546         -0.430         -0.239         -0.263         -0.221         -0.107         -0.111         -0.137         -0.146         -0.100         -0.125         -0.074          0.100         -0.005          0.759         -0.035         -0.316         -0.168         -0.010          0.010         -0.013         -0.095          0.136        132.933
      24000.000         -0.948          0.032          0.027          0.071          0.037         -0.086         -0.232         -0.067         -0.046         -0.093         -0.054         -0.038         -0.061         -0.069         -0.036         -0.394          0.450         -0.152          0.010          0.034         -0.062          0.062          0.035          0.061          0.131          0.106          0.110          0.103          0.137          0.204          0.110          0.137          0.163          0.286         -0.006          0.126          0.123          0.277          0.149          0.027         -0.105         -0.305         -0.149         -0.039         -0.233         -0.593         -0.185         -0.176         -0.288          2.284         -0.120         -0.130         -0.086         -0.004          0.063         -0.001          0.041          0.076          0.160         -2.623          0.210          0.265          0.379          3.839          0.480          0.962          1.247          0.097         -0.192         50.086          0.578         -0.419         -0.889         -0.646         -0.411         -0.245         -0.427         -0.226         -0.258         -0.064         -0.146         -0.151         -0.107         -0.099         -0.102         -0.090          1.001         -1.023         -0.063         -0.074         -0.051         -0.045         -0.030         -0.016          0.004          0.001         -0.028         -0.020         -0.004         -0.011          0.003          0.012          0.029          0.017          0.035          0.077          0.061         -0.102         -0.275          0.082          0.100          0.127          0.107          0.177          0.160          0.133          0.164          0.286          0.194          0.156          0.146          0.126          0.105         -0.015         -0.124         -0.085         -0.117         -0.202         -0.121         -0.137         -0.162         -0.099         -0.098         -0.045         -0.125         -0.014          1.815          0.075          0.020          0.103          0.166          0.214          0.068         -0.155          0.019          0.174          2.554          0.949          0.633          0.124         -0.206          2.901         -0.056         -0.087         -0.146         -0.045         -0.126         -0.198         -0.098         -0.156         -0.125         -0.099         -0.093         -0.120         -0.094         -0.066         -0.092         -0.070         -0.046         -0.398         -0.063         -0.013         -0.023         -0.036         -0.043         -0.132         -0.002         -0.097         -0.153         -0.294         -0.116          0.004         -0.011          0.026          0.035         -0.553          0.732         -0.188         -0.625          0.058          0.082          0.038          0.102          0.099          0.133          0.143          0.136          0.150          0.145          0.168          0.192          0.169          0.164          0.194          0.736          0.120         -0.114          0.739          0.395         -0.024         -0.073          2.461         -0.141         -0.171         -0.266         -0.140          0.035          0.031         -0.033         -0.136         -0.138         -0.140         -0.073          0.241          0.285          1.804          0.287          0.359          0.469          0.437          0.123          0.901          0.013          0.009         -0.539          1.274         -0.195         -0.062         -0.299         -0.208         -0.178         -0.043         -0.106         -0.096         -0.119         -0.100         -0.099         -0.101         -0.069          0.099          0.007          0.713         -0.008         -0.371         -0.159          0.001          0.012          0.006         -0.087          0.191        137.765