# Time	LEU-41	ALA-42	ILE-43	VAL-44	PHE-45	GLY-46	ASN-47	GLY-48	LEU-49	VAL-50	CYS-51	MET-52	ALA-53	VAL-54	LEU-55	LYS-56	GLU-57	ARG-58	ALA-59	LEU-60	GLN-61	THR-62	THR-63	THR-64	ASN-65	TYR-66	LEU-67	VAL-68	VAL-69	SER-70	LEU-71	ALA-72	VAL-73	ALA-74	ASH-75	LEU-76	LEU-77	VAL-78	ALA-79	THR-80	LEU-81	VAL-82	MET-83	PRO-84	TRP-85	VAL-86	VAL-87	TYR-88	LEU-89	GLU-90	VAL-91	THR-92	GLY-93	GLY-94	VAL-95	TRP-96	ASN-97	PHE-98	SER-99	ARG-100	ILE-101	CYS-102	CYX-103	ASP-104	VAL-105	PHE-106	VAL-107	THR-108	LEU-109	ASP-110	VAL-111	MET-112	MET-113	CYS-114	THR-115	ALA-116	SER-117	ILE-118	TRP-119	ASN-120	LEU-121	CYS-122	ALA-123	ILE-124	SER-125	ILE-126	ASP-127	ARG-128	TYR-129	THR-130	ALA-131	VAL-132	VAL-133	MET-134	PRO-135	VAL-136	HID-137	TYR-138	GLN-139	HID-140	GLY-141	THR-142	GLY-143	GLN-144	SER-145	SER-146	CYS-147	ARG-148	ARG-149	VAL-150	ALA-151	LEU-152	MET-153	ILE-154	THR-155	ALA-156	VAL-157	TRP-158	VAL-159	LEU-160	ALA-161	PHE-162	ALA-163	VAL-164	SER-165	CYS-166	PRO-167	LEU-168	LEU-169	PHE-170	GLY-171	PHE-172	ASN-173	THR-174	THR-175	GLY-176	ASP-177	PRO-178	THR-179	VAL-180	CYX-181	SER-182	ILE-183	SER-184	ASN-185	PRO-186	ASP-187	PHE-188	VAL-189	ILE-190	TYR-191	SER-192	SER-193	VAL-194	VAL-195	SER-196	PHE-197	TYR-198	LEU-199	PRO-200	PHE-201	GLY-202	VAL-203	THR-204	VAL-205	LEU-206	VAL-207	TYR-208	ALA-209	ARG-210	ILE-211	TYR-212	VAL-213	VAL-214	LEU-215	LYS-216	GLN-217	ARG-218	ARG-219	ARG-220	LYS-221	GLY-319	VAL-320	PRO-321	LEU-322	ARG-323	GLU-324	LYS-325	LYS-326	ALA-327	THR-328	GLN-329	MET-330	VAL-331	ALA-332	ILE-333	VAL-334	LEU-335	GLY-336	ALA-337	PHE-338	ILE-339	VAL-340	CYS-341	TRP-342	LEU-343	PRO-344	PHE-345	PHE-346	LEU-347	THR-348	HIE-349	VAL-350	LEU-351	ASN-352	THR-353	HID-354	CYX-355	GLN-356	THR-357	CYX-358	HID-359	VAL-360	SER-361	PRO-362	GLU-363	LEU-364	TYR-365	SER-366	ALA-367	THR-368	THR-369	TRP-370	LEU-371	GLY-372	TYR-373	VAL-374	ASN-375	SER-376	ALA-377	LEU-378	ASN-379	PRO-380	VAL-381	ILE-382	TYR-383	THR-384	THR-385	PHE-386	ASN-387	ILE-388	GLU-389	PHE-390	ARG-391	LYS-392	ALA-393	PHE-394	LEU-395	LYS-396	ILE-397	DPN-14602	
          0.000         15.169         -0.069         -0.114         -0.199         -0.095          0.317          0.702          0.115          0.206          0.379          0.073          0.012          0.211          0.292          0.261          9.904         -9.685          8.267         -0.027         -0.116          0.267         -0.291         -0.132         -0.318         -0.603         -0.294         -0.604         -0.632         -0.602         -0.608         -0.772         -0.501         -0.584         -0.715         -1.943         -0.507         -0.230         -0.020         -0.086          0.584          0.234          0.822         -0.345         -0.168          0.652          2.116          0.425          0.701          1.375        -28.534          0.505          0.434          0.428          0.071         -0.001          0.253          0.362         -0.497         -1.290         23.718         -1.059         -0.799         -1.906        -27.687         -1.427         -2.003         -3.529         -1.609         -0.213       -111.710         -9.257          0.159          3.132          1.763          0.269          1.186          2.455          1.013          1.302          0.559          0.829          0.701          0.506          0.594          0.553          0.378        -11.888         12.098          0.275          0.271          0.229          0.242          0.211         -0.007         -0.089         -0.005          0.208          0.083         -0.036          0.060         -0.012         -0.318         -0.227         -0.381         -0.279         -0.284         -0.314          9.086          9.854         -0.318         -0.330         -0.343         -0.375         -0.499         -0.353         -0.387         -0.545         -0.838         -0.501         -0.441         -0.865         -0.706         -0.122         -0.904         -0.365          0.174          0.468          1.391          0.554          0.420          0.527          0.146         -1.043          0.170         -0.001          0.240        -18.895         -0.337         -0.520          0.372         -0.111         -1.221         -0.303          2.061         -0.773         -1.155        -19.142         -0.851         -2.092         -0.619          0.730         -4.058         -0.629          0.260          0.543         -0.455          0.274          0.469          0.265          0.672          0.583          0.248          0.370          0.460          0.305          0.270          0.366          0.236          0.193         10.475          0.313          0.111          0.177          0.196          0.244          9.110          0.260          8.933          8.294          8.868          7.326         -0.030          0.112         -0.161         -0.167          9.962        -10.864         10.027         10.644         -0.316         -0.419         -0.191         -0.567         -0.519         -0.443         -0.457         -0.688         -0.816         -0.591         -0.945         -1.125         -1.069         -0.469         -0.214         -3.013         -0.937          0.089         -4.439         -3.179         -0.420         -0.155         -2.194          0.129          0.577          0.069          0.089         -0.270          0.157          0.522          0.225          0.734          1.196         -0.295         -1.553         -1.481        -22.005         -1.190         -3.379         -3.493         -0.544          0.639         -6.691          0.972          0.581          3.701          2.068          0.964          1.046          2.007          0.859          0.901          1.589          0.533          0.537          0.634          0.557          0.418          0.386          0.333         -0.445         -0.128        -10.904          0.094         10.936          9.269          0.122         -0.095          0.081          8.012         -7.772       -114.627
       4000.000         14.773         -0.021         -0.286         -0.252          0.026          0.331          0.632          0.177          0.239          0.439          0.149          0.109          0.268          0.323          0.255         10.084         -9.609          8.730         -0.017         -0.114          0.346         -0.309         -0.170         -0.362         -0.616         -0.343         -0.533         -0.624         -0.486         -0.465         -0.946         -0.584         -0.652         -1.260         -1.972         -0.642         -0.228          0.189          0.094          0.393          0.461          0.687          0.118         -0.274          0.229          1.543          0.363          0.535          1.230        -26.412          0.505          0.556          0.689         -0.037         -0.281          0.012          0.426         -0.391         -1.141         22.507         -0.775         -0.603         -1.931        -25.386         -1.566         -2.670         -4.214         -2.248         -0.453       -111.989         -8.876          0.372          2.267          3.384         -0.617          1.186          2.398          0.959          1.248          0.577          0.810          0.758          0.543          0.572          0.442          0.372        -12.082         12.324          0.283          0.046          0.189          0.244          0.216         -0.135         -0.053          0.016          0.062          0.120         -0.107          0.067         -0.067         -0.233         -0.202         -0.192         -0.247         -0.265         -0.275          9.135          9.914         -0.332         -0.371         -0.366         -0.624         -0.547         -0.421         -0.419         -0.579         -0.895         -0.465         -0.481         -0.777         -0.838         -0.081         -0.871         -0.102         -0.255          0.599          1.094          0.555          0.380          0.425         -0.386         -0.951         -0.084         -0.201          0.089        -17.842         -0.492         -0.385          0.214          0.076         -1.343         -0.374          0.696         -1.372         -1.286        -19.961         -2.048         -2.897         -0.862          0.921         -4.591         -1.114          0.005          0.432         -0.458         -0.101          0.707          0.460          0.730          0.443          0.259          0.356          0.467          0.296          0.264          0.386          0.283          0.217         10.423          0.319          0.132          0.172          0.182          0.230          9.010         -0.032          8.732          8.492          8.790          7.207         -0.077          0.050         -0.166         -0.190         10.057        -10.924          8.865         10.075         -0.270         -0.440         -0.138         -0.546         -0.470         -0.430         -0.387         -0.484         -0.694         -0.510         -0.689         -1.048         -1.127         -0.591         -0.538         -2.953         -1.202          0.048         -6.706         -3.712         -0.464         -0.049         -0.594          0.158          0.634          0.105          0.757         -0.356          0.408         -0.023          0.205          0.678          0.104         -0.355         -1.432         -1.440        -21.481         -0.831         -0.366         -2.616         -0.746         -0.008         -5.903          0.475          0.187          2.846          1.930          0.548          0.806          2.324          0.917          0.979          1.448          0.565          0.522          0.570          0.493          0.415          0.384          0.335         -0.459         -0.085        -10.775          0.129         11.196         10.065          0.129         -0.031          0.092          8.316         -8.596       -122.534
       8000.000         15.164         -0.003         -0.164         -0.263         -0.035          0.298          0.339          0.215          0.188          0.423          0.069         -0.003          0.232          0.352          0.254          9.973         -9.608          8.930         -0.044         -0.140          0.336         -0.234         -0.174         -0.202         -0.663         -0.325         -0.619         -0.687         -0.651         -0.414         -0.892         -0.677         -0.678         -1.008         -2.123         -0.674          0.055          0.179          0.157          0.378          0.676          0.637         -0.090         -0.014          0.282          1.614          0.284          0.590          1.323        -28.691          0.280          0.367          0.230         -0.867          0.018         -0.109          0.477         -0.434         -1.269         23.556         -0.825         -0.699         -1.984        -26.852         -1.381         -2.505         -4.054         -1.661         -1.019       -120.442        -10.697         -0.225          2.953          2.926          0.813          1.076          2.215          0.930          1.375          0.612          0.929          0.782          0.517          0.597          0.506          0.344        -12.148         12.537          0.246          0.293          0.242          0.234          0.196          0.013         -0.058          0.026         -0.040          0.091         -0.047         -0.125         -0.047         -0.204         -0.206         -0.375         -0.178         -0.242         -0.290          9.119         10.176         -0.347         -0.414         -0.402         -0.617         -0.546         -0.630         -0.395         -0.593         -0.942         -0.578         -0.352         -0.766         -0.865         -0.142          0.146          0.506         -0.080          0.432          1.338          0.592          0.399          0.691          0.119         -0.940         -0.366         -0.028          0.031        -18.770         -0.292         -0.440          0.188          1.090          0.523         -0.504          0.816         -0.898         -0.924        -18.594         -0.884         -2.999         -0.927          0.529         -6.882         -0.843          0.045          0.552         -0.738         -0.096          0.441          0.374          0.762          0.434          0.282          0.398          0.514          0.349          0.242          0.393          0.212          0.171         10.736          0.343          0.115          0.138          0.202          0.239          9.278          0.189          9.099          8.303          8.911          7.687          0.005          0.078         -0.159         -0.179         10.034        -11.081          8.909         10.590         -0.302         -0.490         -0.111         -0.246         -0.509         -0.499         -0.504         -0.615         -0.817         -0.466         -0.408         -1.265         -1.105         -0.605         -1.205         -4.100         -1.013          0.275         -6.864         -2.433          0.000         -0.090          2.497          0.074          0.594          0.016          0.439         -0.266          0.039         -0.258          0.003          0.564          0.664         -0.122         -1.564         -1.460        -22.740         -1.246         -1.267         -1.240         -1.080         -0.252         -6.547         -0.307          0.468          3.007          2.112          0.769          0.677          2.014          0.914          0.984          1.557          0.536          0.547          0.612          0.553          0.434          0.401          0.337         -0.449         -0.128        -11.172          0.103         11.144          9.962          0.130         -0.081          0.115          7.899         -8.315       -128.903
      12000.000         14.423          0.036         -0.252         -0.210         -0.044          0.258          0.497          0.151          0.172          0.436          0.109          0.184          0.196          0.308          0.215          9.846         -9.519          8.836         -0.030         -0.128          0.385         -0.251         -0.151         -0.354         -0.581         -0.277         -0.539         -0.575         -0.508         -0.581         -0.777         -0.711         -0.576         -0.884         -1.781         -0.587         -0.889         -0.095          0.002          0.685          0.764          0.404         -0.243         -0.024          0.590          1.859          0.077          0.797          1.754        -28.470          0.305          0.576          0.466         -0.420         -0.029          0.010          0.324         -0.558         -1.373         24.166         -1.096         -0.874         -2.033        -28.026         -1.416         -1.616         -3.746         -1.857         -0.872       -116.394         -6.066          0.202          2.522          1.426          0.769          1.080          2.306          1.017          1.372          0.616          0.902          0.780          0.517          0.511          0.497          0.318        -11.755         12.046          0.307          0.251          0.234          0.245          0.195          0.020         -0.013          0.039          0.024         -0.085         -0.097         -0.061          0.004         -0.279         -0.211         -0.229         -0.194         -0.245         -0.293          9.066         10.164         -0.322         -0.358         -0.388         -0.511         -0.544         -0.404         -0.490         -0.669         -1.163         -0.674         -0.633         -0.794         -0.822         -0.082         -0.997          0.073          0.018          0.421          0.983          0.339          0.294          0.783          0.334         -0.262          0.304          0.143         -0.064        -19.345         -0.646         -0.868         -0.024         -0.442         -0.906         -0.497          0.065         -1.080         -0.894        -19.509         -1.564         -2.260         -0.796          0.437         -2.250         -1.420         -0.091          0.386         -0.145         -0.043          0.714          0.374          0.781          0.503          0.297          0.460          0.521          0.273          0.293          0.395          0.250          0.231         10.536          0.310          0.129          0.158          0.187          0.226          9.337          0.054          9.047          8.291          8.871          7.146          0.032          0.071         -0.175         -0.207          9.766        -10.765          8.926         10.380         -0.283         -0.397         -0.435         -0.535         -0.431         -0.422         -0.493         -0.635         -0.815         -0.647         -0.821         -1.074         -1.175         -0.547         -0.625         -2.744         -1.288          0.111         -5.176         -3.068          0.093         -0.429         -4.335          0.138          0.549          0.271          0.037         -0.127         -0.059          0.014          0.620          0.687         -0.063         -0.532         -1.114         -1.380        -20.551         -0.980         -3.074         -2.753         -1.106         -0.692         -4.957         -0.809          0.477          2.636          0.736          0.929          1.045          1.880          0.858          0.820          1.486          0.505          0.509          0.547          0.553          0.413          0.404          0.310         -0.379         -0.170        -10.731          0.143         10.564          9.753          0.119         -0.041          0.139          8.115         -8.309       -131.318
      16000.000         14.493         -0.046         -0.268         -0.211         -0.068          0.354          0.355          0.117          0.263          0.428          0.104          0.112          0.239          0.316          0.230         10.089         -9.533          8.699         -0.037         -0.139          0.311         -0.229         -0.152         -0.435         -0.500         -0.277         -0.466         -0.527         -0.560         -0.795         -0.843         -0.629         -0.525         -0.794         -1.964         -0.481          0.096          0.287          0.000          0.694          0.436          0.782         -0.065          0.036          0.504          1.546          0.094          0.620          1.481        -30.827          0.477          0.614          0.671         -0.435         -0.054         -0.026          0.427         -0.526         -1.213         22.773         -1.052         -0.693         -2.108        -27.110         -1.634         -2.840         -3.968         -1.328         -0.662       -106.561        -10.380          0.443          2.646          1.638          0.231          0.968          1.750          0.921          1.085          0.828          0.862          0.751          0.446          0.564          0.460          0.333        -11.607         12.164          0.275          0.279          0.229          0.226          0.202          0.120         -0.008          0.033         -0.001          0.131         -0.013          0.120          0.035         -0.295         -0.201         -0.154         -0.210         -0.279         -0.344          8.824         10.067         -0.325         -0.321         -0.346         -0.219         -0.479         -0.390         -0.425         -0.701         -0.890         -0.642         -0.572         -0.838         -0.889         -0.248         -0.948         -0.029         -0.120          0.385          1.398          0.485          0.460          0.614          0.310         -0.317          0.069          0.057          0.237        -17.400         -0.717         -0.531          0.356         -0.096         -0.929         -0.632          0.436         -1.182         -1.037        -19.521         -1.060         -2.387         -0.434          0.833         -4.759         -1.651         -0.156          0.453         -0.643         -0.148          0.391          0.389          0.746          0.512          0.310          0.400          0.582          0.273          0.244          0.388          0.240          0.212         10.471          0.299          0.107          0.169          0.200          0.235          8.921          0.094          8.827          8.300          8.717          7.150          0.022          0.088         -0.193         -0.200          9.732        -10.826          9.132         10.388         -0.332         -0.476         -0.363         -0.595         -0.478         -0.462         -0.524         -0.686         -0.835         -0.758         -0.778         -1.108         -1.248         -0.660         -1.206         -4.408         -1.143         -0.106         -8.699         -4.714         -0.216         -0.024          1.078          0.190          0.778         -0.016          0.142         -0.276          0.022         -0.524          0.598          0.571          0.235         -0.414         -1.319         -1.381        -20.483         -0.840         -2.630         -2.783         -0.809         -1.604         -6.394          0.274          1.066          4.520          2.248          1.006          1.444          1.984          0.839          0.962          1.358          0.524          0.487          0.596          0.454          0.408          0.456          0.303         -0.417         -0.145        -10.751          0.139         10.730          9.776          0.067          0.131          0.082          7.471         -7.562       -126.588
      20000.000         14.651         -0.114         -0.158         -0.277         -0.065          0.370          0.306          0.167          0.206          0.441          0.133          0.025          0.232          0.292          0.259         10.029         -9.317          8.666         -0.008         -0.160          0.348         -0.242         -0.132         -0.296         -0.583         -0.312         -0.550         -0.543         -0.540         -0.619         -0.855         -0.504         -0.558         -0.725         -1.825         -0.643         -0.227          0.086          0.073          0.494          0.415          0.993         -0.481         -0.179          0.111          1.166          0.109          0.553          1.238        -30.622          0.438          0.549          0.486         -0.604         -0.031         -0.340          0.378         -0.385         -1.056         23.636         -0.970         -0.671         -2.043        -24.935         -1.616         -2.595         -3.617         -1.608         -0.361       -109.712         -9.441          0.523          2.742          4.424          0.252          0.822          1.981          0.736          1.118          0.475          0.840          0.724          0.490          0.529          0.463          0.350        -11.712         12.141          0.295          0.246          0.228          0.257          0.214          0.093         -0.037          0.046         -0.020          0.115          0.091         -0.048         -0.003         -0.182         -0.211         -0.047         -0.196         -0.259         -0.337          9.035         10.226         -0.322         -0.378         -0.381         -0.187         -0.522         -0.617         -0.407         -0.651         -0.949         -0.568         -0.467         -0.434         -0.848         -0.048         -0.151         -0.269         -0.599          0.325          1.367          0.363          0.424          0.466         -0.191         -2.120         -1.434         -0.588          0.061        -18.771         -0.985         -0.918          0.057         -0.051         -1.806         -0.532          2.850         -0.573         -0.792        -18.914         -1.140         -1.295         -0.604          0.441         -5.117         -1.011         -0.059          0.491         -0.392          0.002          0.832          0.331          0.494          0.366          0.272          0.408          0.627          0.396          0.257          0.388          0.256          0.210         10.621          0.301          0.114          0.132          0.165          0.196          9.035          0.217          8.513          8.943          8.804          7.272         -0.020          0.075         -0.171         -0.192          9.868        -10.775          8.721          9.972         -0.308         -0.433         -0.052         -0.566         -0.506         -0.492         -0.394         -0.733         -0.888         -0.561         -0.784         -1.244         -1.023         -0.657         -0.990         -4.992         -0.949          0.034         -8.406         -3.718          0.141         -0.159         -1.481          0.161          0.624          3.855          0.346         -0.334          0.559         -0.173          0.685          0.765          1.416         -0.248         -1.357         -1.505        -21.294         -1.148         -4.746         -2.988         -1.773         -2.124         -5.683         -0.329          0.553          4.020          3.035          1.017          1.732          2.004          0.860          1.022          1.472          0.498          0.480          0.537          0.662          0.403          0.467          0.323         -0.436         -0.065        -10.836          0.161         10.568          9.743          0.102         -0.054          0.099          8.090         -8.306       -125.181
      24000.000         15.065         -0.112         -0.103         -0.245         -0.041          0.336          0.642          0.127          0.192          0.405          0.268          0.256          0.266          0.347          0.249          9.921         -9.703          8.762         -0.032         -0.128          0.363         -0.309         -0.182         -0.392         -0.641         -0.372         -0.545         -0.619         -0.608         -0.494         -0.747         -0.590         -0.441         -0.521         -1.524         -0.346          0.022         -0.118         -0.182          0.458          0.394          0.851          0.613         -0.395          0.447          1.361          0.056          0.625          1.464        -30.047          0.536          0.440          0.240         -1.100          0.088         -0.104          0.395         -0.371         -0.990         24.316         -0.926         -0.722         -1.905        -27.169         -1.233         -2.639         -3.374         -1.010         -0.430       -113.095         -7.895          0.426          2.945          2.288          1.232          0.989          2.115          1.076          1.281          0.587          0.821          0.666          0.491          0.532          0.470          0.354        -11.760         12.206          0.315          0.271          0.226          0.232          0.204          0.036         -0.068         -0.013          0.053          0.055          0.043          0.116         -0.030          0.000         -0.158         -0.006         -0.231         -0.275         -0.278          9.002          9.948         -0.318         -0.323         -0.338         -0.219         -0.538         -0.481         -0.394         -0.683         -1.044         -0.591         -0.385         -0.674         -0.627         -0.252         -0.140          0.359          0.115          0.427          1.239          0.309          0.389          0.646          0.308          0.187          0.065          0.179          0.139        -20.036         -0.333         -0.627          0.443          1.800          2.999         -0.173         -0.205         -1.109         -1.023        -18.892         -1.602         -3.282         -0.610          0.789         -4.338         -0.449          0.249          0.530         -0.278          0.030          0.565          0.310          0.592          0.454          0.197          0.306          0.475          0.343          0.274          0.374          0.293          0.225         10.624          0.308          0.074          0.148          0.195          0.232          9.480          0.113          8.342          8.374          8.887          7.648         -0.010          0.094         -0.150         -0.179         10.003        -10.936          9.056         10.332         -0.325         -0.471         -0.022         -0.620         -0.444         -0.479         -0.470         -0.582         -0.779         -0.564         -0.619         -1.102         -0.830         -0.305         -0.413         -3.458         -1.026          0.192         -6.788         -3.741         -0.430         -0.501          1.526         -0.055          0.755          3.126          0.313         -0.297         -0.079          0.352          0.671          0.738          0.495         -0.283         -1.273         -1.208        -20.288         -1.040         -2.199         -2.922         -1.269         -0.895         -4.571          0.335          0.173          3.502         -5.528          0.772          2.624          2.424          0.753          0.965          1.684          0.520          0.481          0.544          0.531          0.436          0.439          0.338         -0.491         -0.133        -10.747          0.063         11.033          9.548          0.050         -0.011         -0.047          7.904         -8.372       -110.843