# Time	LEU-41	ALA-42	ILE-43	VAL-44	PHE-45	GLY-46	ASN-47	GLY-48	LEU-49	VAL-50	CYS-51	MET-52	ALA-53	VAL-54	LEU-55	LYS-56	GLU-57	ARG-58	ALA-59	LEU-60	GLN-61	THR-62	THR-63	THR-64	ASN-65	TYR-66	LEU-67	VAL-68	VAL-69	SER-70	LEU-71	ALA-72	VAL-73	ALA-74	ASH-75	LEU-76	LEU-77	VAL-78	ALA-79	THR-80	LEU-81	VAL-82	MET-83	PRO-84	TRP-85	VAL-86	VAL-87	TYR-88	LEU-89	GLU-90	VAL-91	THR-92	GLY-93	GLY-94	VAL-95	TRP-96	ASN-97	PHE-98	SER-99	ARG-100	ILE-101	CYS-102	CYX-103	ASP-104	VAL-105	PHE-106	VAL-107	THR-108	LEU-109	ASP-110	VAL-111	MET-112	MET-113	CYS-114	THR-115	ALA-116	SER-117	ILE-118	TRP-119	ASN-120	LEU-121	CYS-122	ALA-123	ILE-124	SER-125	ILE-126	ASP-127	ARG-128	TYR-129	THR-130	ALA-131	VAL-132	VAL-133	MET-134	PRO-135	VAL-136	HID-137	TYR-138	GLN-139	HID-140	GLY-141	THR-142	GLY-143	GLN-144	SER-145	SER-146	CYS-147	ARG-148	ARG-149	VAL-150	ALA-151	LEU-152	MET-153	ILE-154	THR-155	ALA-156	VAL-157	TRP-158	VAL-159	LEU-160	ALA-161	PHE-162	ALA-163	VAL-164	SER-165	CYS-166	PRO-167	LEU-168	LEU-169	PHE-170	GLY-171	PHE-172	ASN-173	THR-174	THR-175	GLY-176	ASP-177	PRO-178	THR-179	VAL-180	CYX-181	SER-182	ILE-183	SER-184	ASN-185	PRO-186	ASP-187	PHE-188	VAL-189	ILE-190	TYR-191	SER-192	SER-193	VAL-194	VAL-195	SER-196	PHE-197	TYR-198	LEU-199	PRO-200	PHE-201	GLY-202	VAL-203	THR-204	VAL-205	LEU-206	VAL-207	TYR-208	ALA-209	ARG-210	ILE-211	TYR-212	VAL-213	VAL-214	LEU-215	LYS-216	GLN-217	ARG-218	ARG-219	ARG-220	LYS-221	GLY-319	VAL-320	PRO-321	LEU-322	ARG-323	GLU-324	LYS-325	LYS-326	ALA-327	THR-328	GLN-329	MET-330	VAL-331	ALA-332	ILE-333	VAL-334	LEU-335	GLY-336	ALA-337	PHE-338	ILE-339	VAL-340	CYS-341	TRP-342	LEU-343	PRO-344	PHE-345	PHE-346	LEU-347	THR-348	HIE-349	VAL-350	LEU-351	ASN-352	THR-353	HID-354	CYX-355	GLN-356	THR-357	CYX-358	HID-359	VAL-360	SER-361	PRO-362	GLU-363	LEU-364	TYR-365	SER-366	ALA-367	THR-368	THR-369	TRP-370	LEU-371	GLY-372	TYR-373	VAL-374	ASN-375	SER-376	ALA-377	LEU-378	ASN-379	PRO-380	VAL-381	ILE-382	TYR-383	THR-384	THR-385	PHE-386	ASN-387	ILE-388	GLU-389	PHE-390	ARG-391	LYS-392	ALA-393	PHE-394	LEU-395	LYS-396	ILE-397	DPN-14602	
          0.000         -1.016          0.019          0.152          0.202         -0.010         -0.114         -0.242         -0.081         -0.061         -0.123         -0.032         -0.038         -0.062         -0.078         -0.047         -0.360          0.483         -0.281          0.020          0.040         -0.050          0.065          0.040          0.088          0.168          0.124          0.121          0.119          0.141          0.249          0.164          0.130          0.156          0.233          0.270          0.131          0.170          0.259          0.133          0.057         -0.105         -0.354          0.072         -0.107         -0.225         -0.558         -0.256         -0.256         -0.256          1.133         -0.127         -0.139         -0.094          0.023          0.029         -0.034          0.032          0.146          0.240         -2.285          0.174          0.235          0.293          3.054          0.478          0.844          1.005          0.189         -0.109         48.285          0.819         -0.154         -0.805         -0.857         -0.223         -0.220         -0.462         -0.238         -0.257         -0.300         -0.145         -0.169         -0.119         -0.119         -0.127         -0.084          0.950         -1.073         -0.057         -0.057         -0.044         -0.035         -0.030         -0.005          0.007          0.006          0.009         -0.026         -0.039          0.003          0.003          0.009          0.007          0.010          0.029          0.052          0.070         -0.198         -0.715          0.078          0.106          0.110          0.084          0.154          0.161          0.152          0.147          0.232          0.146          0.063          0.130          0.142          0.051          0.000          0.010         -0.086         -0.120         -0.190         -0.044         -0.035         -0.067         -0.065         -0.214         -0.070         -0.171         -0.127          1.448          0.105          0.021          0.059          0.124         -0.335         -0.091          0.004          0.323          0.188          2.072          0.796          0.793          0.202          0.073          2.703          1.405          0.027         -0.100          0.604         -0.136         -0.230         -0.125         -0.184         -0.173         -0.118         -0.150         -0.125         -0.098         -0.055         -0.106         -0.080         -0.058         -0.414         -0.069         -0.026         -0.026         -0.036         -0.036         -0.147          0.001         -0.114         -0.258         -0.165         -0.046         -0.005         -0.013          0.032          0.037         -0.524          0.724         -0.265         -0.480          0.072          0.101          0.117          0.095          0.118          0.134          0.155          0.138          0.181          0.173          0.201          0.255          0.206          0.249          0.274          0.726          0.098         -0.046          0.730          0.517         -0.101         -0.101          1.671         -0.195         -0.166         -0.380         -0.105         -0.091          0.055          0.015          0.132         -0.069          0.036         -0.153          0.308          0.389          2.101          0.355          0.427          0.662          0.410          0.222          0.898          0.525         -0.023         -0.490         -2.552         -0.276         -0.476         -0.305         -0.266         -0.213         -0.188         -0.114         -0.134         -0.159         -0.081         -0.110         -0.096         -0.050         -0.028          0.026          0.612         -0.014         -0.759         -0.246          0.014          0.007          0.011         -0.409          1.141        135.248
       4000.000         -1.048          0.015          0.151          0.174          0.031         -0.089         -0.248         -0.074         -0.056         -0.116         -0.017         -0.057         -0.062         -0.071         -0.048         -0.355          0.462         -0.294          0.014          0.026         -0.073          0.061          0.038          0.060          0.151          0.108          0.117          0.109          0.144          0.208          0.138          0.127          0.154          0.297          0.212          0.128          0.124          0.224          0.087          0.055         -0.023         -0.261          0.197         -0.056         -0.450         -0.788         -0.251         -0.228         -0.399          1.613         -0.155         -0.170         -0.127         -0.062          0.035          0.117          0.065          0.151          0.308         -2.809          0.228          0.283          0.405          3.906          0.387          0.748          0.829          0.112         -0.135         40.446          0.523         -0.264         -0.962         -0.349         -0.088         -0.192         -0.370         -0.231         -0.275         -0.328         -0.151         -0.167         -0.118         -0.114         -0.106         -0.070          0.896         -0.942         -0.036         -0.057         -0.048         -0.032         -0.024         -0.011          0.008          0.003          0.018         -0.030          0.009          0.001          0.013          0.022          0.003          0.030          0.036          0.049          0.057         -0.167         -0.676          0.088          0.136          0.148          0.136          0.163          0.146          0.177          0.152          0.312          0.210          0.081          0.151          0.153          0.036         -0.048         -0.063         -0.064         -0.128         -0.230         -0.017         -0.110         -0.146         -0.062         -0.297         -0.098         -0.192         -0.159          1.859          0.128          0.118          0.105          0.289         -0.287         -0.051         -0.099          0.288          0.147          2.139          0.591          0.665          0.224         -0.003          3.336          0.441         -0.015         -0.068          0.848         -0.109         -0.222         -0.146         -0.224         -0.164         -0.121         -0.147         -0.146         -0.085         -0.062         -0.092         -0.061         -0.049         -0.364         -0.054         -0.022         -0.022         -0.032         -0.030         -0.120          0.007         -0.104         -0.260         -0.203         -0.041          0.007         -0.009          0.026          0.034         -0.377          0.648         -0.261         -0.529          0.054          0.074          0.084          0.055          0.097          0.112          0.110          0.113          0.143          0.138          0.157          0.161          0.159          0.112          0.151          0.519          0.043         -0.047          0.585          0.529         -0.029         -0.096          1.351         -0.144         -0.116         -0.139         -0.071         -0.176          0.071         -0.015          0.142         -0.027          0.072         -0.111          0.208          0.226          1.514          0.230          0.251          0.605          0.348          0.131          0.728          0.621          0.015         -0.293         -1.135         -0.142         -0.341         -0.175         -0.206         -0.146         -0.113         -0.091         -0.125         -0.126         -0.074         -0.093         -0.092         -0.057         -0.012          0.027          0.617         -0.017         -0.611         -0.290          0.011          0.024          0.006         -0.418          1.050        127.990
       8000.000         -0.783          0.040          0.129          0.199          0.059         -0.066         -0.243         -0.081         -0.053         -0.122         -0.024         -0.058         -0.060         -0.081         -0.060         -0.344          0.434         -0.205          0.006          0.029         -0.058          0.051          0.036          0.062          0.172          0.099          0.131          0.137          0.163          0.240          0.179          0.122          0.176          0.277          0.213          0.151          0.049          0.186          0.002         -0.165         -0.061         -0.198          0.320          0.008         -0.374         -0.766         -0.334         -0.249         -0.395          1.747         -0.140         -0.179         -0.147          0.043          0.059         -0.041          0.052          0.167          0.277         -2.581          0.228          0.295          0.306          3.580          0.412          0.800          1.076          0.131         -0.056         44.826          0.785         -0.204         -0.668         -0.910         -0.134         -0.225         -0.512         -0.271         -0.315         -0.409         -0.191         -0.189         -0.119         -0.117         -0.119         -0.077          0.935         -0.978         -0.048         -0.052         -0.047         -0.035         -0.025         -0.002          0.009          0.009          0.011         -0.015         -0.007          0.003          0.012          0.011          0.010          0.044          0.037          0.058          0.079         -0.173         -0.688          0.095          0.137          0.139          0.130          0.168          0.141          0.145          0.134          0.247          0.164          0.113          0.132          0.129         -0.028          0.058         -0.121         -0.109         -0.134         -0.223         -0.154         -0.129         -0.100         -0.054         -0.258         -0.086         -0.189         -0.141          1.753          0.058          0.019          0.095          0.265         -0.389         -0.090          0.282          0.330          0.146          2.277          0.777          0.809          0.177         -0.048          2.909          0.410         -0.067         -0.107          0.668         -0.051         -0.175         -0.134         -0.200         -0.154         -0.136         -0.150         -0.136         -0.093         -0.056         -0.091         -0.071         -0.047         -0.336         -0.057         -0.014         -0.021         -0.035         -0.030         -0.139         -0.014         -0.106         -0.275         -0.136         -0.053          0.001         -0.009          0.023          0.030         -0.399          0.659         -0.177         -0.244          0.062          0.067          0.082          0.090          0.118          0.117          0.119          0.132          0.171          0.170          0.171          0.186          0.172          0.174          0.168          0.378          0.036         -0.076          0.650          0.311         -0.081         -0.152          3.047         -0.148         -0.126         -0.131         -0.065         -0.033          0.048          0.079          0.133         -0.046          0.041         -0.068          0.228          0.272          1.709          0.251          0.386          0.684          0.367          0.315          0.620          0.693          0.062         -0.219         -1.759         -0.223         -0.336         -0.359         -0.245         -0.235         -0.221         -0.105         -0.115         -0.140         -0.084         -0.097         -0.115         -0.055         -0.080          0.016          0.439         -0.031         -0.555         -0.293          0.008          0.001         -0.036         -0.415          0.977        131.560
      12000.000         -1.086          0.058          0.254          0.124          0.039         -0.114         -0.300         -0.103         -0.065         -0.106         -0.020         -0.041         -0.067         -0.076         -0.055         -0.400          0.432         -0.197          0.004          0.032         -0.077          0.070          0.037          0.068          0.177          0.085          0.119          0.122          0.156          0.186          0.166          0.175          0.201          0.346          0.227          0.235          0.101          0.230          0.145          0.015         -0.088         -0.175          0.128         -0.064         -0.295         -0.697         -0.322         -0.234         -0.406          1.757         -0.159         -0.194         -0.144          0.057          0.023          0.017          0.054          0.189          0.292         -2.258          0.230          0.291          0.331          3.292          0.415          1.013          1.084          0.111         -0.124         52.760          1.011         -0.190         -0.840         -0.458          0.003         -0.254         -0.455         -0.227         -0.246         -0.339         -0.153         -0.172         -0.116         -0.126         -0.132         -0.084          0.984         -1.003         -0.043         -0.066         -0.055         -0.039         -0.026         -0.011          0.012          0.006          0.006         -0.034          0.021         -0.023          0.016         -0.011          0.002          0.022          0.066          0.049          0.051         -0.170         -0.780          0.086          0.119          0.135          0.131          0.156          0.149          0.127          0.153          0.224          0.138          0.080          0.139          0.145          0.035          0.080         -0.076         -0.116         -0.108         -0.227         -0.186         -0.129         -0.127         -0.097         -0.264         -0.099         -0.142         -0.079          1.604          0.108          0.111          0.056          0.220         -0.143         -0.053         -0.076          0.274          0.158          1.889          0.622          0.453          0.154         -0.046          2.794          0.662         -0.022         -0.060          0.977         -0.102         -0.144         -0.150         -0.166         -0.148         -0.121         -0.129         -0.116         -0.096         -0.075         -0.104         -0.072         -0.059         -0.380         -0.062         -0.016         -0.021         -0.032         -0.033         -0.153         -0.004         -0.092         -0.284         -0.161         -0.042          0.003         -0.010          0.026          0.037         -0.350          0.655         -0.197         -0.316          0.068          0.080          0.067          0.068          0.103          0.113          0.129          0.115          0.145          0.156          0.183          0.197          0.187          0.205          0.171          0.761          0.036         -0.095          0.529          0.375         -0.098         -0.113          2.544         -0.163         -0.140         -0.256         -0.050         -0.250          0.022          0.025          0.103         -0.042          0.045         -0.112          0.268          0.262          1.769          0.281          0.398          0.681          0.433          0.385          1.922          0.882          0.024         -0.423         -1.118         -0.260         -0.433         -0.314         -0.237         -0.193         -0.231         -0.132         -0.139         -0.141         -0.122         -0.093         -0.096         -0.055         -0.069          0.023          0.465         -0.003         -0.588         -0.206         -0.001         -0.012          0.035         -0.422          1.200        131.877
      16000.000         -1.012          0.048          0.178          0.155          0.069         -0.101         -0.228         -0.108         -0.083         -0.116         -0.038         -0.036         -0.070         -0.073         -0.065         -0.323          0.463         -0.300          0.004          0.022         -0.051          0.055          0.038          0.085          0.189          0.094          0.123          0.127          0.149          0.173          0.152          0.169          0.173          0.256          0.216          0.172          0.067          0.137          0.089          0.041         -0.030         -0.125          0.267         -0.064         -0.199         -0.652         -0.210         -0.240         -0.358          1.423         -0.149         -0.148         -0.102         -0.130          0.003         -0.035          0.050          0.110          0.205         -1.898          0.182          0.194          0.251          2.805          0.413          0.780          1.159          0.230          0.002         41.413          1.089         -0.167         -0.844         -0.706         -0.142         -0.216         -0.531         -0.289         -0.306         -0.407         -0.182         -0.203         -0.119         -0.131         -0.125         -0.084          0.972         -1.075         -0.050         -0.067         -0.049         -0.037         -0.024          0.010          0.013          0.005          0.010         -0.020          0.025         -0.005          0.016         -0.002         -0.004          0.038          0.038          0.050          0.067         -0.153         -0.702          0.085          0.113          0.119          0.076          0.158          0.118          0.140          0.116          0.239          0.129          0.070          0.116          0.154          0.001         -0.073         -0.172         -0.053         -0.082         -0.189         -0.111         -0.107         -0.095         -0.025         -0.279         -0.090         -0.144         -0.124          1.133          0.062         -0.014          0.054          0.118          0.158         -0.248          0.314          0.221          0.241          2.003          0.826          0.778          0.158         -0.010          2.907          0.313          0.099         -0.037          1.442         -0.058         -0.240         -0.143         -0.198         -0.156         -0.123         -0.147         -0.145         -0.101         -0.068         -0.110         -0.083         -0.067         -0.406         -0.070         -0.028         -0.030         -0.038         -0.036         -0.127         -0.006         -0.138         -0.259         -0.213         -0.064          0.003         -0.009          0.032          0.039         -0.458          0.702         -0.232         -0.397          0.073          0.091          0.106          0.081          0.116          0.158          0.152          0.154          0.180          0.183          0.213          0.258          0.244          0.220          0.263          0.713          0.102         -0.117          0.498          0.506         -0.145         -0.154          1.428         -0.213         -0.125         -0.296         -0.073         -0.179          0.061         -0.046          0.112         -0.064         -0.003         -0.176          0.330          0.244          2.077          0.338          0.510          0.769          0.470          0.377          0.902          0.860         -0.055         -0.638         -1.405         -0.233         -0.515         -0.366         -0.264         -0.222         -0.148         -0.111         -0.143         -0.152         -0.106         -0.099         -0.112         -0.059         -0.038          0.024          0.344         -0.026         -0.687         -0.219          0.004         -0.010          0.010         -0.390          1.087        129.092
      20000.000         -1.004          0.023          0.224          0.199          0.117         -0.075         -0.308         -0.106         -0.069         -0.132         -0.054         -0.051         -0.073         -0.074         -0.044         -0.399          0.432         -0.287          0.015          0.028         -0.039          0.069          0.042          0.105          0.168          0.081          0.130          0.133          0.149          0.237          0.148          0.163          0.190          0.256          0.214          0.204         -0.055          0.173          0.085         -0.018         -0.091         -0.319          0.213         -0.077         -0.208         -0.596         -0.257         -0.233         -0.319          1.551         -0.127         -0.173         -0.121         -0.041          0.008         -0.005         -0.168          0.072          0.239         -2.480          0.192          0.279          0.342          3.437          0.370          0.696          1.127          0.167         -0.147         41.126          1.008         -0.156         -0.777         -0.461         -0.339         -0.222         -0.465         -0.233         -0.196         -0.335         -0.160         -0.156         -0.119         -0.118         -0.113         -0.078          0.913         -1.019         -0.046         -0.068         -0.049         -0.035         -0.024          0.007          0.006          0.003          0.004         -0.017         -0.015         -0.005          0.011         -0.008          0.030          0.025          0.048          0.068          0.072         -0.154         -0.671          0.068          0.112          0.116          0.169          0.172          0.120          0.140          0.119          0.250          0.156          0.094          0.117          0.147          0.056          0.025         -0.089         -0.099         -0.092         -0.150         -0.085         -0.008         -0.036         -0.038         -0.128         -0.097         -0.023         -0.147          1.460          0.108          0.043          0.071          0.115         -0.142          0.733         -0.016          0.165          0.156          2.047          0.699          0.378          0.106          0.060          2.047          0.640         -0.006         -0.045          0.879         -0.065         -0.174         -0.082         -0.157         -0.146         -0.115         -0.119         -0.131         -0.107         -0.047         -0.101         -0.063         -0.057         -0.414         -0.066         -0.019         -0.025         -0.033         -0.032         -0.151          0.010         -0.135         -0.288         -0.211         -0.062          0.007         -0.011          0.028          0.038         -0.495          0.711         -0.350         -0.483          0.072          0.082          0.110          0.062          0.122          0.125          0.153          0.146          0.176          0.189          0.212          0.248          0.246          0.193          0.302          0.706          0.061         -0.139          0.678          0.403         -0.101         -0.156          2.642         -0.151         -0.136         -0.318         -0.073         -0.206          0.056         -0.011          0.096         -0.078          0.064         -0.156          0.264          0.306          1.941          0.301          0.587          0.791          0.372          0.330          1.633          0.769         -0.049         -0.567         -1.179         -0.292         -0.432         -0.305         -0.296         -0.230         -0.219         -0.134         -0.152         -0.158         -0.115         -0.108         -0.123         -0.061         -0.092          0.003          0.631         -0.025         -0.635         -0.211         -0.005         -0.016          0.007         -0.367          1.004        135.511
      24000.000         -0.889          0.045          0.175          0.194          0.031         -0.094         -0.193         -0.095         -0.063         -0.119         -0.025         -0.037         -0.074         -0.068         -0.052         -0.438          0.415         -0.292          0.003          0.033         -0.052          0.045          0.038          0.081          0.148          0.109          0.127          0.121          0.158          0.212          0.182          0.189          0.160          0.219          0.200          0.173          0.066          0.168          0.058          0.147         -0.102         -0.153          0.059         -0.099         -0.250         -0.732         -0.263         -0.269         -0.306          1.526         -0.116         -0.139         -0.109          0.045          0.045         -0.005          0.096          0.158          0.252         -2.633          0.208          0.238          0.344          3.722          0.427          0.986          1.089          0.238         -0.021         38.475          0.439         -0.317         -1.028          1.188         -0.248         -0.258         -0.322         -0.274         -0.339         -0.385         -0.170         -0.178         -0.120         -0.120         -0.111         -0.082          0.933         -0.999         -0.049         -0.058         -0.054         -0.038         -0.021         -0.011          0.004          0.004          0.010         -0.022          0.023          0.001          0.012         -0.008          0.010          0.022          0.028          0.054          0.075         -0.143         -0.723          0.094          0.123          0.132          0.147          0.182          0.132          0.191          0.157          0.308          0.193          0.127          0.205          0.259          0.057          0.170         -0.109         -0.061         -0.068         -0.289         -0.077         -0.043         -0.105         -0.174         -0.109         -0.010          0.012          0.033          1.330          0.115          0.035          0.134          0.111         -0.048         -0.148         -0.076          0.401          0.226          2.212          0.611          0.420          0.170          0.014          2.093          0.956         -0.030         -0.124          1.075         -0.094         -0.174         -0.137         -0.179         -0.152         -0.125         -0.136         -0.154         -0.100         -0.058         -0.105         -0.075         -0.064         -0.404         -0.063         -0.022         -0.026         -0.034         -0.025         -0.156          0.001         -0.112         -0.299         -0.174         -0.030          0.004         -0.014          0.026          0.031         -0.445          0.702         -0.219         -0.400          0.057          0.082          0.110          0.097          0.090          0.117          0.116          0.111          0.131          0.146          0.148          0.140          0.163          0.131          0.150          0.062          0.102         -0.025          0.142          0.286         -0.011         -0.100          1.742         -0.131         -0.093         -0.152         -0.073         -0.189          0.042          0.017          0.114         -0.045          0.039         -0.118          0.237          0.226          1.481          0.182          0.375          0.419          0.281          0.167          0.226          0.487          0.071         -0.147          0.237         -0.076         -0.206         -0.233         -0.218         -0.225         -0.268         -0.107         -0.104         -0.128         -0.089         -0.081         -0.108         -0.053         -0.012          0.017          0.521         -0.012         -0.573         -0.276         -0.001          0.031          0.013         -0.500          0.939        123.403