# Time	LEU-41	ALA-42	ILE-43	VAL-44	PHE-45	GLY-46	ASN-47	GLY-48	LEU-49	VAL-50	CYS-51	MET-52	ALA-53	VAL-54	LEU-55	LYS-56	GLU-57	ARG-58	ALA-59	LEU-60	GLN-61	THR-62	THR-63	THR-64	ASN-65	TYR-66	LEU-67	VAL-68	VAL-69	SER-70	LEU-71	ALA-72	VAL-73	ALA-74	ASH-75	LEU-76	LEU-77	VAL-78	ALA-79	THR-80	LEU-81	VAL-82	MET-83	PRO-84	TRP-85	VAL-86	VAL-87	TYR-88	LEU-89	GLU-90	VAL-91	THR-92	GLY-93	GLY-94	VAL-95	TRP-96	ASN-97	PHE-98	SER-99	ARG-100	ILE-101	CYS-102	CYX-103	ASP-104	VAL-105	PHE-106	VAL-107	THR-108	LEU-109	ASP-110	VAL-111	MET-112	MET-113	CYS-114	THR-115	ALA-116	SER-117	ILE-118	TRP-119	ASN-120	LEU-121	CYS-122	ALA-123	ILE-124	SER-125	ILE-126	ASP-127	ARG-128	TYR-129	THR-130	ALA-131	VAL-132	VAL-133	MET-134	PRO-135	VAL-136	HID-137	TYR-138	GLN-139	HID-140	GLY-141	THR-142	GLY-143	GLN-144	SER-145	SER-146	CYS-147	ARG-148	ARG-149	VAL-150	ALA-151	LEU-152	MET-153	ILE-154	THR-155	ALA-156	VAL-157	TRP-158	VAL-159	LEU-160	ALA-161	PHE-162	ALA-163	VAL-164	SER-165	CYS-166	PRO-167	LEU-168	LEU-169	PHE-170	GLY-171	PHE-172	ASN-173	THR-174	THR-175	GLY-176	ASP-177	PRO-178	THR-179	VAL-180	CYX-181	SER-182	ILE-183	SER-184	ASN-185	PRO-186	ASP-187	PHE-188	VAL-189	ILE-190	TYR-191	SER-192	SER-193	VAL-194	VAL-195	SER-196	PHE-197	TYR-198	LEU-199	PRO-200	PHE-201	GLY-202	VAL-203	THR-204	VAL-205	LEU-206	VAL-207	TYR-208	ALA-209	ARG-210	ILE-211	TYR-212	VAL-213	VAL-214	LEU-215	LYS-216	GLN-217	ARG-218	ARG-219	ARG-220	LYS-221	GLY-319	VAL-320	PRO-321	LEU-322	ARG-323	GLU-324	LYS-325	LYS-326	ALA-327	THR-328	GLN-329	MET-330	VAL-331	ALA-332	ILE-333	VAL-334	LEU-335	GLY-336	ALA-337	PHE-338	ILE-339	VAL-340	CYS-341	TRP-342	LEU-343	PRO-344	PHE-345	PHE-346	LEU-347	THR-348	HIE-349	VAL-350	LEU-351	ASN-352	THR-353	HID-354	CYX-355	GLN-356	THR-357	CYX-358	HID-359	VAL-360	SER-361	PRO-362	GLU-363	LEU-364	TYR-365	SER-366	ALA-367	THR-368	THR-369	TRP-370	LEU-371	GLY-372	TYR-373	VAL-374	ASN-375	SER-376	ALA-377	LEU-378	ASN-379	PRO-380	VAL-381	ILE-382	TYR-383	THR-384	THR-385	PHE-386	ASN-387	ILE-388	GLU-389	PHE-390	ARG-391	LYS-392	ALA-393	PHE-394	LEU-395	LYS-396	ILE-397	DPN-14602	
          0.000         13.168         -0.172         -0.411         -0.686          0.112          0.523          0.747          0.169          0.276          0.477          0.182          0.084          0.262          0.347          0.251          9.912         -9.802          9.258         -0.057         -0.187          0.310         -0.360         -0.150         -0.400         -0.673         -0.487         -0.534         -0.567         -0.557         -0.794         -0.804         -0.570         -0.449         -0.753         -0.282         -0.513         -0.346         -0.133         -0.102          0.393          0.528          0.947         -0.584          0.056          0.353          1.108          0.159          0.767          1.209        -22.091          0.418          0.534          0.319         -0.667          0.327          0.094          0.034         -0.454         -1.160         22.432         -0.830         -0.707         -1.920        -23.848         -1.290         -2.420         -3.309         -1.423         -0.787       -114.119         -6.960         -0.310          2.504          3.145          0.273          1.091          2.540          1.382          1.317          1.736          0.817          0.743          0.487          0.537          0.550          0.362        -11.874         12.370          0.371          0.251          0.225          0.224          0.196          0.025         -0.049         -0.034         -0.170          0.059          0.128         -0.026         -0.041         -0.059         -0.028          0.059         -0.215         -0.195         -0.379          9.138         10.946         -0.303         -0.358         -0.328         -0.264         -0.497         -0.551         -0.361         -0.626         -0.904         -0.466         -0.372         -0.774         -0.849         -0.342         -0.403         -0.078          0.128          0.662          0.743          0.234          0.138          0.095          0.626         -0.744          0.227          0.807          0.890        -20.052         -0.702         -0.061          0.598          1.754         -2.558         -1.398         -0.651         -1.722         -0.893        -18.749         -0.651         -2.196         -0.699         -0.200         -5.268         -4.948         -0.639         -0.058         -2.684          0.190          0.645          0.539          0.895          0.632          0.336          0.494          0.466          0.362          0.280          0.381          0.265          0.235         10.205          0.314          0.242          0.158          0.207          0.226          9.691          0.134          8.171          9.117          7.917          7.153          0.067          0.031         -0.196         -0.190          9.991        -10.925          9.435         10.138         -0.327         -0.456         -0.289         -0.353         -0.489         -0.466         -0.466         -0.569         -0.846         -0.566         -0.638         -1.155         -1.272         -0.709         -1.154         -3.744         -1.238          0.053         -6.432         -4.159         -0.014         -0.527          0.641          0.064          0.714          3.096          1.376          0.592         -0.400         -0.479         -0.604          0.245         -0.035          0.455         -1.492         -1.480        -20.493         -1.276         -2.599         -1.601         -1.057         -1.703         -4.782         -2.532          0.573          3.440          2.363          0.703          1.324          2.039          0.852          0.974          1.587          0.521          0.555          0.575          0.379          0.519          0.409          0.265          0.172         -0.117        -10.465          0.071         12.046          9.498         -0.106         -0.086         -0.005         10.448        -13.316       -120.295
       4000.000         13.318         -0.198         -0.500         -0.519          0.053          0.519          0.790          0.186          0.270          0.484          0.067          0.277          0.266          0.347          0.243         10.421         -9.894          9.690         -0.045         -0.125          0.458         -0.369         -0.144         -0.329         -0.649         -0.497         -0.548         -0.612         -0.649         -0.697         -0.897         -0.663         -0.412         -0.301         -0.185         -0.494         -0.030          0.370          0.065          0.439          0.394          1.147         -0.975         -0.202          1.575          1.770          0.128          0.627          1.493        -22.819          0.490          0.582          0.607         -0.833          0.138         -0.286         -0.290         -0.551         -1.334         23.586         -0.881         -0.822         -2.202        -25.895         -1.124         -1.995         -3.680         -1.882         -0.667       -106.753        -10.196          0.090          3.411          3.906          1.121          1.173          1.828          1.364          1.370          2.035          0.791          0.699          0.511          0.570          0.488          0.337        -11.818         12.125          0.271          0.268          0.231          0.241          0.193          0.061         -0.069         -0.032         -0.176          0.097         -0.053          0.013         -0.100         -0.071          0.003         -0.134         -0.240         -0.180         -0.241          9.443         10.917         -0.336         -0.418         -0.410         -0.417         -0.515         -0.512         -0.387         -0.606         -1.063         -0.630         -0.305         -0.790         -1.010         -0.152         -0.111          0.012          0.073          0.581          0.894          0.114          0.344          0.505          0.679         -0.431          0.322          0.875          0.904        -21.238         -0.536         -0.214          0.638          0.606         -1.119         -1.468         -0.667         -1.614         -0.511        -18.595         -1.417         -2.045         -1.114         -0.254         -6.796         -1.526         -0.430          0.068         -2.197          0.303          0.741          0.560          0.877          0.510          0.343          0.482          0.554          0.303          0.274          0.396          0.254          0.212         10.037          0.302          0.191          0.150          0.201          0.212          8.943         -0.053          8.203          9.036          8.231          6.952         -0.046          0.082         -0.150         -0.189          9.663        -10.782          9.457         10.300         -0.287         -0.401         -0.243         -0.250         -0.454         -0.448         -0.397         -0.637         -0.796         -0.587         -0.521         -0.853         -1.075         -0.335         -0.346         -3.308         -0.723          0.065         -5.383         -3.372         -0.204          0.057          3.779          0.124          0.547          1.619          1.050          0.643         -0.396          0.123         -0.595         -0.007         -0.306          0.305         -1.080         -1.117        -18.915         -1.088         -1.663         -2.284         -1.294         -2.169         -5.597         -3.364          0.270          3.459          0.009          0.742          0.852          2.414          0.742          0.833          1.476          0.461          0.572          0.587          0.375          0.511          0.394          0.296          0.089         -0.144        -10.592          0.055         11.644          9.526         -0.081         -0.069          0.059         10.248        -13.142       -108.162
       8000.000         12.901         -0.300         -0.577         -0.533         -0.070          0.495          0.660          0.203          0.224          0.454          0.166          0.196          0.243          0.362          0.285          9.734         -9.634          9.003         -0.012         -0.130          0.302         -0.290         -0.130         -0.249         -0.615         -0.311         -0.524         -0.623         -0.593         -0.724         -0.858         -0.471         -0.553         -0.521         -0.493         -0.505          0.125          0.075          0.231          0.895          0.381          0.208         -1.944         -0.419          0.953          1.718          0.226          0.691          1.439        -24.071          0.319          0.589          0.541         -0.457          0.119          0.140          0.239         -0.680         -1.424         23.689         -1.056         -0.889         -2.272        -26.884         -1.566         -2.261         -3.677         -1.391         -0.445       -113.930         -7.451          0.553          1.918          2.112          0.364          0.916          2.006          1.303          1.479          1.905          0.853          0.730          0.476          0.484          0.482          0.327        -11.772         11.933          0.332          0.220          0.224          0.218          0.201         -0.087         -0.051         -0.054         -0.155          0.046         -0.024         -0.036         -0.097         -0.072         -0.042         -0.290         -0.236         -0.189         -0.344          9.163         10.791         -0.344         -0.399         -0.378         -0.393         -0.519         -0.455         -0.434         -0.500         -1.010         -0.462         -0.341         -0.810         -0.713          0.057         -0.680          0.287          0.136          0.578          1.176          0.431          0.539          0.273          0.677         -0.432          0.331          0.993          0.915        -21.246         -0.159          0.000          0.395          1.147         -2.507         -1.818          1.992         -2.106         -0.787        -19.406         -0.652         -3.531         -0.890         -0.066         -6.294         -2.132          0.073          0.388         -1.554          0.018          0.867          0.557          0.848          0.458          0.365          0.476          0.457          0.316          0.255          0.360          0.257          0.195          9.699          0.303          0.225          0.163          0.196          0.205          9.198          0.060          7.852          8.872          7.774          7.036         -0.010          0.083         -0.148         -0.175          9.558        -10.632          8.628          9.414         -0.285         -0.337         -0.136         -0.334         -0.466         -0.415         -0.391         -0.577         -0.718         -0.580         -0.567         -0.926         -0.922         -0.569         -0.791         -2.995         -0.760         -0.121         -5.571         -2.743         -0.168          0.249         -0.983         -0.190          0.525          2.467          0.915          0.531         -0.377         -0.508         -0.731          0.226         -0.133          0.040         -1.231         -1.207        -19.564         -0.918         -0.333         -1.867         -1.068         -2.106         -5.373         -3.230          0.271          2.691          0.813          0.790          0.804          2.108          0.820          0.914          1.419          0.491          0.516          0.533          0.407          0.465          0.468          0.265          0.303         -0.068         -9.811          0.145         11.547          9.323         -0.081         -0.032          0.096         10.547        -13.262       -125.789
      12000.000         13.755         -0.273         -0.618         -0.512         -0.020          0.565          0.877          0.258          0.222          0.406          0.142          0.180          0.272          0.331          0.282          9.639         -9.459          8.953         -0.051         -0.109          0.385         -0.342         -0.127         -0.303         -0.706         -0.274         -0.527         -0.570         -0.573         -0.513         -0.757         -0.755         -0.567         -1.096         -0.302         -0.821          0.064         -0.021         -0.207          0.583          0.392          0.286         -0.341         -0.178          0.579          1.409          0.205          0.507          1.234        -26.243          0.456          0.568          0.515         -0.811          0.198          0.020          0.328         -0.624         -1.232         21.428         -0.876         -0.810         -1.867        -24.390         -1.193         -2.507         -3.386         -1.259         -0.406       -117.524         -9.684         -0.182          2.199         -0.269          0.779          1.235          2.475          1.197          1.118          1.833          0.839          0.783          0.473          0.561          0.596          0.355        -11.891         11.916          0.313          0.259          0.239          0.228          0.194          0.036         -0.065         -0.049         -0.156          0.102         -0.168          0.151         -0.099          0.188         -0.056         -0.154         -0.288         -0.158         -0.256          9.046         11.053         -0.325         -0.362         -0.369         -0.371         -0.491         -0.480         -0.314         -0.651         -0.847         -0.460         -0.328         -0.758         -0.801         -0.193         -0.604          0.232          0.164          0.439          1.035          0.576          0.547          0.342          0.340         -1.260          0.252          0.805          0.936        -19.660         -0.578         -0.286          0.376          0.051         -1.436         -0.633          0.218         -1.157         -1.011        -18.972         -0.995         -3.133         -1.001         -0.036         -6.622         -2.974         -0.225          0.296         -3.014          0.364          0.865          0.618          0.746          0.474          0.335          0.415          0.487          0.349          0.283          0.386          0.237          0.235         10.054          0.295          0.199          0.157          0.201          0.221          9.476          0.152          7.851          9.063          7.989          7.062         -0.011          0.080         -0.181         -0.198          9.300        -10.584          8.782          9.727         -0.297         -0.325         -0.282         -0.282         -0.466         -0.407         -0.408         -0.500         -0.693         -0.607         -0.684         -0.926         -1.108         -0.741         -0.386         -3.622         -1.033         -0.156         -5.710         -1.435         -0.255         -0.233          1.137          0.002          0.556          2.047          1.171          1.152         -0.351         -0.330         -0.537          0.242          0.052          0.251         -1.162         -1.142        -19.744         -1.054         -1.741         -1.582         -1.062         -1.361         -6.321         -3.642          0.264          3.424         -1.370          0.860          1.701          2.225          0.829          0.915          1.625          0.562          0.534          0.538          0.567          0.465          0.389          0.271          0.267         -0.108         -9.673          0.005         11.944          9.197         -0.056         -0.008         -0.110         10.635        -13.779       -133.589
      16000.000         13.206         -0.189         -0.386         -0.455         -0.104          0.460          0.696          0.248          0.309          0.435          0.241          0.123          0.275          0.328          0.273          9.823         -9.724          9.392         -0.020         -0.088          0.296         -0.296         -0.131         -0.388         -0.694         -0.277         -0.505         -0.573         -0.565         -0.565         -0.727         -0.714         -0.527         -0.991         -0.657         -0.642          0.078          0.191         -0.052          0.350          0.214          0.130         -0.999         -0.221          0.235          1.418         -0.078          0.637          1.186        -22.527          0.486          0.490          0.575          0.337          0.293         -0.131          0.185         -0.532         -1.167         21.229         -0.947         -0.792         -1.845        -24.987         -1.359         -2.300         -3.778         -1.892         -0.713       -109.824         -9.209          0.099          2.671          0.868          1.104          1.034          2.092          1.194          1.313          1.965          0.832          0.813          0.474          0.545          0.509          0.350        -11.666         12.069          0.308          0.264          0.225          0.232          0.184         -0.108         -0.089         -0.042         -0.171          0.049         -0.107          0.063         -0.116          0.014         -0.021         -0.199         -0.132         -0.151         -0.333          8.749         10.670         -0.322         -0.336         -0.335         -0.205         -0.542         -0.418         -0.423         -0.443         -1.008         -0.498         -0.369         -0.693         -0.915         -0.193         -0.476          0.142         -0.123          0.460          0.936          0.380          0.457          0.395          0.468         -1.491          0.371          0.848          0.770        -19.224         -0.337         -0.078          0.502          0.203          1.852         -1.652          1.881         -1.479         -1.348        -19.526         -1.550         -2.916         -0.649          0.073         -7.219         -2.253         -0.662         -0.009         -3.377         -0.341          0.954          0.574          0.805          0.493          0.339          0.464          0.536          0.350          0.284          0.377          0.256          0.241         10.003          0.308          0.157          0.175          0.188          0.225          9.152          0.008          8.322          8.885          8.245          7.271          0.006          0.085         -0.182         -0.194          9.642        -10.541          8.797          9.795         -0.325         -0.403         -0.293         -0.297         -0.452         -0.504         -0.439         -0.631         -0.759         -0.593         -0.619         -1.056         -1.180         -0.639         -0.995         -4.420         -1.097          0.064         -3.724         -4.075          0.070          0.069          3.915          0.017          0.369          2.435          1.048          0.931         -0.534         -0.067         -0.274          0.192          0.152          0.330         -1.333         -0.943        -19.544         -1.215         -1.713         -2.077         -1.147         -2.046         -3.360         -3.230          0.337          3.475          0.205          0.579          1.574          2.278          0.774          0.904          1.023          0.470          0.540          0.548          0.479          0.469          0.434          0.279          0.166         -0.097         -9.312          0.099         11.874          8.920         -0.058          0.018         -0.008         10.409        -13.137       -115.668
      20000.000         14.058         -0.338         -0.671         -0.560         -0.240          0.388          1.019          0.303          0.257          0.480          0.209          0.304          0.282          0.361          0.243         10.855         -9.836          9.591         -0.036         -0.135          0.252         -0.377         -0.165         -0.474         -0.699         -0.274         -0.575         -0.630         -0.567         -0.911         -0.872         -0.763         -0.526         -0.945         -0.494         -0.739          0.540          0.292         -0.028          0.594          0.387          0.999         -1.014         -0.256          0.302          1.535          0.313          0.706          1.284        -23.133          0.412          0.595          0.572         -0.828          0.253         -0.369          0.608         -0.361         -1.250         23.571         -0.808         -0.845         -2.065        -26.211         -1.432         -1.489         -3.344         -1.564         -0.478       -112.533         -8.525          0.050          2.892          1.476          0.888          1.135          1.910          1.280          1.228          1.781          0.792          0.732          0.494          0.522          0.498          0.331        -11.742         12.172          0.312          0.295          0.225          0.219          0.177         -0.067         -0.046         -0.044         -0.159          0.040         -0.021          0.010         -0.084          0.057         -0.129         -0.065         -0.316         -0.275         -0.262          8.984         10.765         -0.300         -0.370         -0.315         -0.527         -0.588         -0.393         -0.453         -0.550         -1.021         -0.546         -0.468         -0.842         -0.865         -0.214         -0.743          0.182          0.085          0.555          0.532          0.342         -0.054          0.181          0.398         -1.713          0.210         -0.053          1.059        -20.996         -0.478         -0.473          0.659          1.892         -0.810         -4.238         -0.082         -1.744         -0.965        -18.894         -0.979         -2.133         -0.791         -0.118         -6.823         -3.072         -0.285          0.324         -0.981          0.076          0.972          0.475          0.767          0.512          0.356          0.397          0.459          0.359          0.230          0.367          0.222          0.219          9.981          0.314          0.185          0.153          0.176          0.211          9.464          0.007          8.255          8.978          8.359          7.153         -0.019          0.093         -0.156         -0.196          9.800        -10.772          9.763         10.070         -0.301         -0.389         -0.284         -0.197         -0.473         -0.406         -0.484         -0.610         -0.765         -0.694         -0.675         -1.053         -1.308         -0.489         -1.234         -3.903         -0.956          0.097         -7.088         -3.799          0.018          0.185         -2.715         -0.004          0.473          2.651          0.615          0.906         -0.401         -0.096         -0.379          0.361         -0.022          0.509         -1.168         -1.200        -19.028         -1.027         -2.906         -1.935         -0.761         -2.152         -6.216         -2.876          0.270          3.288         -1.208          0.766          1.167          2.606          0.925          1.003          1.761          0.580          0.603          0.578          0.538          0.508          0.389          0.254          0.288         -0.011        -10.728          0.093         11.851          9.318         -0.008          0.039         -0.026         10.780        -13.149       -129.665
      24000.000         13.097         -0.329         -0.439         -0.663          0.038          0.519          0.555          0.253          0.279          0.470          0.162          0.201          0.300          0.319          0.274         10.742         -9.380          9.542         -0.051         -0.142          0.303         -0.256         -0.141         -0.361         -0.644         -0.300         -0.505         -0.542         -0.620         -0.674         -0.874         -0.834         -0.573         -0.558         -0.520         -0.727          0.052          0.143          0.018          0.081          0.330          0.369         -0.589         -0.106          0.323          1.454          0.225          0.798          1.548        -28.017          0.447          0.499          0.271         -0.694          0.076          0.020          0.269         -0.655         -1.154         23.988         -0.896         -0.654         -2.122        -26.269         -1.281         -2.460         -3.395         -1.532         -0.363       -106.896         -7.831          0.976          3.196         -2.799          0.631          1.148          1.516          1.307          1.368          1.820          0.819          0.711          0.461          0.528          0.452          0.340        -11.654         11.972          0.296          0.243          0.233          0.225          0.173          0.036         -0.028         -0.034         -0.170          0.064         -0.145          0.017         -0.075          0.022         -0.111         -0.106         -0.196         -0.190         -0.352          9.214         10.812         -0.363         -0.370         -0.383         -0.402         -0.557         -0.385         -0.410         -0.521         -0.919         -0.518         -0.483         -0.863         -1.071         -0.248         -0.965          0.013         -0.058          0.304          0.748          0.140          0.086          0.383          0.728         -1.421         -0.078          0.051          0.080        -19.135         -0.930         -0.372          0.448          1.980          0.077         -2.775         -0.367         -1.438         -0.928        -19.788         -1.707         -3.272         -0.941         -0.191         -6.916         -5.595         -0.252          0.233         -3.578          0.065          0.897          0.494          0.710          0.495          0.370          0.448          0.674          0.343          0.230          0.381          0.250          0.259         10.167          0.301          0.265          0.184          0.197          0.195          9.391          0.110          8.298          9.113          7.887          6.939         -0.020          0.092         -0.152         -0.165          9.562        -10.661          8.664          9.601         -0.262         -0.416         -0.359         -0.516         -0.422         -0.444         -0.390         -0.509         -0.690         -0.580         -0.597         -0.996         -1.021         -0.665         -1.400         -2.471         -1.161         -0.231         -1.314         -3.612         -0.510         -0.133         -2.666         -0.201          0.332          2.591          1.714          0.905         -0.393          0.063         -0.674          0.292          0.098          0.224         -1.244         -1.071        -18.707         -0.904         -3.049         -1.214         -0.829         -1.988         -4.599         -2.457          0.256          3.225          3.250          0.564          1.462          2.302          0.731          1.016          1.359          0.493          0.500          0.544          0.384          0.414          0.391          0.261          0.113         -0.089        -10.137          0.054         11.551          9.157         -0.041         -0.118         -0.030         11.219        -12.941       -127.279