# Time	LEU-41	ALA-42	ILE-43	VAL-44	PHE-45	GLY-46	ASN-47	GLY-48	LEU-49	VAL-50	CYS-51	MET-52	ALA-53	VAL-54	LEU-55	LYS-56	GLU-57	ARG-58	ALA-59	LEU-60	GLN-61	THR-62	THR-63	THR-64	ASN-65	TYR-66	LEU-67	VAL-68	VAL-69	SER-70	LEU-71	ALA-72	VAL-73	ALA-74	ASH-75	LEU-76	LEU-77	VAL-78	ALA-79	THR-80	LEU-81	VAL-82	MET-83	PRO-84	TRP-85	VAL-86	VAL-87	TYR-88	LEU-89	GLU-90	VAL-91	THR-92	GLY-93	GLY-94	VAL-95	TRP-96	ASN-97	PHE-98	SER-99	ARG-100	ILE-101	CYS-102	CYX-103	ASP-104	VAL-105	PHE-106	VAL-107	THR-108	LEU-109	ASP-110	VAL-111	MET-112	MET-113	CYS-114	THR-115	ALA-116	SER-117	ILE-118	TRP-119	ASN-120	LEU-121	CYS-122	ALA-123	ILE-124	SER-125	ILE-126	ASP-127	ARG-128	TYR-129	THR-130	ALA-131	VAL-132	VAL-133	MET-134	PRO-135	VAL-136	HID-137	TYR-138	GLN-139	HID-140	GLY-141	THR-142	GLY-143	GLN-144	SER-145	SER-146	CYS-147	ARG-148	ARG-149	VAL-150	ALA-151	LEU-152	MET-153	ILE-154	THR-155	ALA-156	VAL-157	TRP-158	VAL-159	LEU-160	ALA-161	PHE-162	ALA-163	VAL-164	SER-165	CYS-166	PRO-167	LEU-168	LEU-169	PHE-170	GLY-171	PHE-172	ASN-173	THR-174	THR-175	GLY-176	ASP-177	PRO-178	THR-179	VAL-180	CYX-181	SER-182	ILE-183	SER-184	ASN-185	PRO-186	ASP-187	PHE-188	VAL-189	ILE-190	TYR-191	SER-192	SER-193	VAL-194	VAL-195	SER-196	PHE-197	TYR-198	LEU-199	PRO-200	PHE-201	GLY-202	VAL-203	THR-204	VAL-205	LEU-206	VAL-207	TYR-208	ALA-209	ARG-210	ILE-211	TYR-212	VAL-213	VAL-214	LEU-215	LYS-216	GLN-217	ARG-218	ARG-219	ARG-220	LYS-221	GLY-319	VAL-320	PRO-321	LEU-322	ARG-323	GLU-324	LYS-325	LYS-326	ALA-327	THR-328	GLN-329	MET-330	VAL-331	ALA-332	ILE-333	VAL-334	LEU-335	GLY-336	ALA-337	PHE-338	ILE-339	VAL-340	CYS-341	TRP-342	LEU-343	PRO-344	PHE-345	PHE-346	LEU-347	THR-348	HIE-349	VAL-350	LEU-351	ASN-352	THR-353	HID-354	CYX-355	GLN-356	THR-357	CYX-358	HID-359	VAL-360	SER-361	PRO-362	GLU-363	LEU-364	TYR-365	SER-366	ALA-367	THR-368	THR-369	TRP-370	LEU-371	GLY-372	TYR-373	VAL-374	ASN-375	SER-376	ALA-377	LEU-378	ASN-379	PRO-380	VAL-381	ILE-382	TYR-383	THR-384	THR-385	PHE-386	ASN-387	ILE-388	GLU-389	PHE-390	ARG-391	LYS-392	ALA-393	PHE-394	LEU-395	LYS-396	ILE-397	DPN-14602	
          0.000         -1.233          0.030          0.019          0.072          0.013         -0.081         -0.243         -0.047         -0.048         -0.092         -0.017         -0.032         -0.050         -0.059         -0.040         -0.685          0.571         -0.162         -0.002          0.025         -0.049          0.039          0.050          0.073          0.143          0.086          0.095          0.106          0.127          0.252          0.118          0.153          0.167          0.323          0.216          0.150          0.122          0.201          0.215          0.105         -0.014         -0.284          0.245         -0.019         -0.314         -0.525         -0.147         -0.177         -0.370          2.861         -0.134         -0.160         -0.135          0.031          0.059         -0.008          0.056         -0.103          0.184         -2.746          0.189          0.220          0.340          3.455          0.347          0.977          0.607          0.117         -0.178         42.892          0.423         -0.426         -0.653         -0.374          0.270         -0.213         -0.430         -0.295         -0.286         -0.134         -0.174         -0.179         -0.123         -0.104         -0.104         -0.088          0.901         -0.851         -0.050         -0.070         -0.041         -0.036         -0.022          0.002          0.008          0.010          0.026         -0.020          0.019         -0.021         -0.010          0.017         -0.002         -0.004         -0.008          0.039          0.061         -0.113         -0.440          0.088          0.119          0.103          0.095          0.170          0.154          0.180          0.157          0.312          0.160          0.102          0.167          0.130          0.062          0.014         -0.055         -0.044         -0.133         -0.221         -0.148         -0.150         -0.169         -0.177          0.147          0.058         -0.010         -0.004          1.545          0.166          0.081          0.064          0.075          0.299          0.776          0.053          0.204          0.123          2.488          0.671          0.372          0.100         -0.040          2.312          0.406         -0.077         -0.185          1.909         -0.127         -0.072         -0.160         -0.232         -0.158         -0.141         -0.154         -0.103         -0.074         -0.062         -0.089         -0.061         -0.045         -0.336         -0.044         -0.024         -0.023         -0.025         -0.025         -0.112         -0.006         -0.260         -0.112         -0.031         -0.045          0.014         -0.007          0.019          0.028         -0.416          0.563         -0.137         -0.212          0.060          0.070          0.088          0.055          0.092          0.114          0.134          0.126          0.200          0.156          0.183          0.158          0.154          0.167          0.216          0.775         -0.008         -0.143          0.700          0.607         -0.137         -0.150          2.764         -0.077         -0.084         -0.165         -0.126         -0.067         -0.003         -0.169          0.035         -0.032          0.028         -0.110          0.205          0.303          1.664          0.256          0.480          0.587          0.423          0.067          1.595          0.651         -0.020         -0.472         -3.132         -0.162         -0.321         -0.230         -0.216         -0.167         -0.105         -0.083         -0.091         -0.115         -0.086         -0.069         -0.089         -0.055         -0.038          0.021          0.536         -0.034         -0.671         -0.423         -0.014         -0.026          0.056         -0.334          1.027        141.077
       4000.000         -1.328          0.017          0.043          0.072          0.037         -0.068         -0.183         -0.043         -0.052         -0.091         -0.067         -0.040         -0.047         -0.062         -0.041         -0.470          0.565         -0.196          0.007          0.020         -0.048          0.048          0.058          0.062          0.112          0.083          0.096          0.094          0.124          0.262          0.136          0.153          0.175          0.252          0.303          0.174          0.174          0.294          0.261          0.168          0.010         -0.180          0.120         -0.047         -0.400         -0.520         -0.172         -0.257         -0.331          3.525         -0.158         -0.172         -0.131          0.067          0.076          0.032         -0.061         -0.130          0.232         -3.034          0.263          0.291          0.346          3.784          0.337          1.117          0.884          0.097         -0.243         46.215          0.338         -0.285         -0.706         -0.266          0.078         -0.216         -0.377         -0.257         -0.251         -0.112         -0.145         -0.154         -0.121         -0.099         -0.109         -0.078          0.869         -0.876         -0.051         -0.067         -0.049         -0.036         -0.022          0.000          0.012          0.007          0.009         -0.011          0.028         -0.013         -0.012          0.026          0.011          0.005         -0.000          0.040          0.046         -0.096         -0.596          0.086          0.111          0.114          0.087          0.160          0.116          0.157          0.156          0.268          0.213          0.081          0.120          0.174          0.076         -0.052          0.012         -0.087         -0.131         -0.221         -0.151         -0.114         -0.181         -0.122         -0.088          0.097         -0.038         -0.013          1.596          0.165          0.077          0.058          0.184          0.166          0.206          0.024          0.261          0.144          2.446          0.746          0.244          0.099         -0.117          2.807          0.307         -0.042         -0.116          1.040         -0.073         -0.099         -0.148         -0.208         -0.145         -0.130         -0.132         -0.106         -0.076         -0.057         -0.076         -0.079         -0.042         -0.327         -0.048         -0.018         -0.017         -0.025         -0.026         -0.126         -0.007         -0.266         -0.108         -0.042         -0.054          0.012         -0.007          0.028          0.042         -0.572          0.611         -0.205         -0.505          0.051          0.073          0.079          0.039          0.083          0.103          0.105          0.112          0.172          0.131          0.163          0.154          0.181          0.210          0.156          0.447          0.045         -0.049          1.100          0.489         -0.092         -0.214          3.872         -0.102         -0.110         -0.214         -0.131         -0.040         -0.012         -0.038          0.058         -0.036          0.069         -0.073          0.252          0.327          1.983          0.298          0.803          0.771          0.343          0.077          0.261          0.405         -0.031         -0.141         -1.161         -0.151         -0.338         -0.159         -0.152         -0.134         -0.083         -0.093         -0.111         -0.102         -0.081         -0.058         -0.082         -0.049         -0.006          0.020          0.665          0.010         -0.634         -0.411         -0.015         -0.028          0.052         -0.359          1.134        138.433
       8000.000         -1.271          0.017          0.044          0.094          0.029         -0.088         -0.243         -0.066         -0.043         -0.086         -0.021         -0.060         -0.057         -0.062         -0.039         -0.529          0.553         -0.141          0.009          0.017         -0.062          0.033          0.040          0.082          0.117          0.081          0.097          0.110          0.120          0.239          0.103          0.135          0.168          0.268          0.178          0.186          0.115          0.204          0.153          0.132          0.030         -0.138          0.360          0.028         -0.290         -0.595         -0.197         -0.191         -0.324          3.525         -0.140         -0.096         -0.120          0.052          0.036         -0.052         -0.254         -0.143          0.179         -2.750          0.197          0.216          0.398          3.615          0.357          0.755          0.449         -0.005         -0.174         42.170          0.508         -0.232         -0.646         -0.082          0.156         -0.214         -0.413         -0.246         -0.257         -0.135         -0.178         -0.174         -0.127         -0.099         -0.107         -0.076          0.844         -0.894         -0.042         -0.051         -0.041         -0.032         -0.022         -0.003          0.012          0.007          0.008         -0.010          0.030         -0.010         -0.013          0.011         -0.011          0.003          0.009          0.036          0.052         -0.110         -0.609          0.078          0.111          0.101          0.073          0.154          0.151          0.178          0.138          0.299          0.170          0.103          0.110          0.105          0.078         -0.050         -0.078         -0.057         -0.136         -0.248         -0.107         -0.075         -0.135         -0.030          0.123          0.064         -0.080         -0.009          1.526          0.141          0.088          0.058          0.161          0.209          0.223          0.031          0.370          0.154          2.459          0.738          0.220          0.067         -0.118          2.292          0.262         -0.054         -0.122          1.540         -0.069         -0.116         -0.135         -0.222         -0.181         -0.130         -0.131         -0.101         -0.080         -0.070         -0.082         -0.013         -0.041         -0.311         -0.043         -0.018         -0.018         -0.024         -0.024         -0.109          0.005         -0.251         -0.083         -0.050         -0.061          0.012          0.002          0.025          0.032         -0.528          0.660         -0.246         -0.211          0.048          0.067          0.100          0.084          0.095          0.113          0.114          0.126          0.189          0.123          0.196          0.169          0.187          0.189          0.262          0.837          0.042         -0.093          0.965          0.286         -0.152         -0.244          3.174         -0.098         -0.097         -0.186         -0.085         -0.047         -0.026         -0.035          0.056         -0.048          0.063         -0.108          0.253          0.294          1.959          0.359          0.485          0.965          0.441          0.285          1.739          0.771         -0.067         -0.537         -2.355         -0.302         -0.473         -0.202         -0.186         -0.179         -0.118         -0.097         -0.106         -0.113         -0.087         -0.069         -0.096         -0.046         -0.025          0.029          0.637         -0.002         -0.623         -0.374         -0.016         -0.035          0.061         -0.328          1.181        136.373
      12000.000         -1.206          0.046          0.088          0.068          0.012         -0.094         -0.199         -0.038         -0.024         -0.088         -0.003         -0.060         -0.062         -0.063         -0.039         -0.536          0.579         -0.131         -0.010          0.019         -0.077          0.049          0.053          0.082          0.127          0.099          0.116          0.133          0.135          0.272          0.129          0.155          0.162          0.284          0.257          0.170          0.162          0.154          0.265          0.216          0.053         -0.457          0.164         -0.024         -0.382         -0.458         -0.181         -0.189         -0.278          3.267         -0.102         -0.084         -0.085         -0.055         -0.008         -0.022         -0.085          0.010          0.214         -2.967          0.245          0.246          0.399          3.526          0.417          1.118          0.887          0.080         -0.196         45.758          0.471         -0.129         -0.818         -0.573          0.022         -0.280         -0.485         -0.293         -0.247         -0.223         -0.181         -0.181         -0.124         -0.108         -0.099         -0.071          0.899         -0.946         -0.044         -0.049         -0.045         -0.035         -0.024         -0.001          0.006          0.009          0.001         -0.022         -0.002         -0.001         -0.017          0.016         -0.012         -0.011          0.010          0.059          0.057         -0.094         -0.608          0.075          0.111          0.112          0.127          0.172          0.122          0.147          0.157          0.297          0.179          0.089          0.151          0.137          0.037         -0.099         -0.097          0.008         -0.133         -0.270         -0.176         -0.091         -0.171         -0.119         -0.272          0.116          0.001         -0.023          1.466          0.188          0.100          0.062          0.115          0.110          0.424         -0.120          0.215          0.114          1.943          0.795          0.148          0.045         -0.161          3.275          0.326         -0.027         -0.045          1.968          0.025         -0.005         -0.096         -0.205         -0.103         -0.103         -0.116         -0.083         -0.078         -0.054         -0.085         -0.072         -0.042         -0.350         -0.046         -0.024         -0.017         -0.024         -0.031         -0.124         -0.024         -0.293         -0.097         -0.034         -0.066          0.017         -0.004          0.028          0.040         -0.597          0.681         -0.276         -0.452          0.057          0.088          0.111          0.101          0.086          0.101          0.119          0.121          0.174          0.135          0.156          0.179          0.192          0.193          0.136          0.614          0.026         -0.105          1.294          0.392         -0.127         -0.173          0.114         -0.051         -0.097         -0.262         -0.017         -0.001          0.031          0.065          0.073         -0.029          0.101         -0.109          0.256          0.319          1.648          0.283          0.490          0.756          0.412          0.161          1.049          0.613          0.054         -0.282         -2.803         -0.210         -0.329         -0.238         -0.238         -0.130         -0.135         -0.117         -0.116         -0.127         -0.112         -0.072         -0.103         -0.048         -0.014          0.025          0.670          0.005         -0.697         -0.426         -0.011         -0.040          0.048         -0.350          0.945        138.770
      16000.000         -1.228          0.014         -0.003          0.083          0.006         -0.082         -0.187         -0.061         -0.033         -0.082          0.000         -0.045         -0.047         -0.051         -0.028         -0.593          0.550         -0.253         -0.002          0.027         -0.059          0.047          0.045          0.084          0.133          0.073          0.098          0.116          0.129          0.208          0.129          0.124          0.135          0.221          0.106          0.137          0.126          0.153          0.163          0.089          0.011         -0.085          0.255          0.012         -0.349         -0.498         -0.131         -0.176         -0.271          3.438         -0.128         -0.158         -0.096          0.063          0.060         -0.076         -0.242          0.122          0.220         -2.734          0.213          0.211          0.225          3.349          0.252          0.554          0.604          0.002         -0.064         36.515          0.919         -0.153         -0.582         -0.284          0.435         -0.196         -0.409         -0.286         -0.257         -0.224         -0.155         -0.236         -0.116         -0.105         -0.096         -0.075          0.834         -0.876         -0.051         -0.052         -0.044         -0.034         -0.024         -0.002          0.010          0.004          0.002         -0.020          0.016         -0.017         -0.008          0.024         -0.006         -0.028         -0.001          0.040          0.049         -0.097         -0.601          0.078          0.117          0.111          0.078          0.149          0.144          0.169          0.148          0.231          0.134          0.087          0.108          0.087          0.045         -0.066         -0.071         -0.102         -0.129         -0.164         -0.107         -0.108         -0.126         -0.098          0.070          0.031         -0.027         -0.039          1.524          0.143          0.025          0.011          0.032         -0.225          1.335         -0.026          0.125          0.095          2.129          0.693          0.152          0.051         -0.072          3.029          0.467         -0.028         -0.106          1.274         -0.040         -0.105         -0.133         -0.238         -0.182         -0.133         -0.131         -0.095         -0.067         -0.059         -0.077         -0.067         -0.045         -0.344         -0.049         -0.022         -0.019         -0.026         -0.030         -0.136         -0.028         -0.264         -0.098         -0.041         -0.078          0.012         -0.006          0.024          0.032         -0.463          0.591         -0.316         -0.217          0.056          0.089          0.127          0.064          0.091          0.101          0.111          0.125          0.204          0.150          0.175          0.163          0.209          0.206          0.190          0.396          0.064         -0.028          1.532          0.523         -0.069         -0.205          1.087         -0.023         -0.132         -0.414         -0.017         -0.048          0.090         -0.049          0.070         -0.049          0.108         -0.180          0.335          0.399          2.137          0.274          0.741          0.600          0.301          0.014          0.414          0.440         -0.023         -0.256         -1.404         -0.134         -0.252         -0.246         -0.181         -0.172         -0.101         -0.094         -0.108         -0.124         -0.079         -0.064         -0.092         -0.054          0.006          0.032          0.575         -0.008         -0.644         -0.421         -0.007         -0.029          0.058         -0.280          1.061        134.788
      20000.000         -0.984          0.016          0.056          0.057          0.026         -0.073         -0.144         -0.043         -0.031         -0.076         -0.006         -0.044         -0.051         -0.055         -0.035         -0.555          0.493         -0.226          0.004          0.016         -0.058          0.036          0.042          0.072          0.108          0.071          0.093          0.106          0.107          0.204          0.148          0.157          0.175          0.230          0.208          0.160          0.147          0.124          0.213          0.147         -0.020         -0.081          0.263         -0.010         -0.472         -0.470         -0.136         -0.191         -0.350          3.455         -0.146         -0.141         -0.070          0.054          0.065         -0.108         -0.098          0.122          0.269         -2.850          0.203          0.243          0.332          3.538          0.297          0.603          1.039         -0.021         -0.151         43.817          0.787         -0.142         -0.662         -0.243          0.028         -0.201         -0.350         -0.259         -0.234         -0.149         -0.157         -0.146         -0.101         -0.095         -0.093         -0.070          0.749         -0.777         -0.043         -0.045         -0.040         -0.031         -0.023         -0.006          0.011          0.008         -0.008         -0.017          0.034         -0.008         -0.012          0.021         -0.001         -0.015          0.003          0.038          0.040         -0.090         -0.530          0.072          0.101          0.109          0.084          0.144          0.142          0.160          0.134          0.262          0.170          0.081          0.095          0.130          0.077         -0.014         -0.028         -0.025         -0.095         -0.282         -0.164         -0.085         -0.144         -0.093         -0.108          0.069         -0.001         -0.049          1.869          0.132          0.069          0.074          0.098          0.404          1.170          0.104         -0.029          0.069          2.323          0.655          0.098          0.006         -0.133          2.294          0.310         -0.050         -0.085          1.622         -0.023         -0.081         -0.125         -0.204         -0.146         -0.135         -0.127         -0.097         -0.069         -0.049         -0.079         -0.052         -0.038         -0.277         -0.041         -0.023         -0.019         -0.026         -0.025         -0.114          0.001         -0.235         -0.081         -0.045         -0.041          0.011         -0.010          0.019          0.028         -0.414          0.520         -0.202         -0.225          0.052          0.069          0.105          0.075          0.090          0.093          0.109          0.114          0.160          0.148          0.184          0.180          0.199          0.195          0.066          0.242          0.042         -0.029          0.754          0.743         -0.104         -0.198          3.205         -0.033         -0.096         -0.343         -0.045         -0.005          0.097         -0.008          0.077         -0.066          0.098         -0.136          0.317          0.333          1.977          0.256          1.466          0.875          0.277          0.104          0.887          0.500         -0.081         -0.438         -3.356         -0.149         -0.324         -0.333         -0.178         -0.173         -0.172         -0.097         -0.103         -0.119         -0.071         -0.070         -0.055         -0.048         -0.006          0.025          0.501          0.003         -0.546         -0.353         -0.011         -0.028          0.031         -0.245          1.087        128.416
      24000.000         -1.308          0.010          0.023          0.072          0.036         -0.063         -0.242         -0.061         -0.042         -0.095          0.004         -0.049         -0.051         -0.071         -0.052         -0.645          0.602         -0.174          0.008          0.022         -0.071          0.044          0.048          0.084          0.134          0.077          0.090          0.105          0.123          0.259          0.089          0.147          0.176          0.306          0.331          0.180          0.119          0.246          0.206         -0.026         -0.109         -0.255         -0.117         -0.003         -0.433         -0.508         -0.170         -0.192         -0.281          3.364         -0.131         -0.136         -0.140         -0.095          0.016          0.074          0.061          0.100          0.288         -2.964          0.233          0.212          0.301          3.613          0.415          0.813          0.652         -0.089         -0.130         45.930          0.497         -0.330         -0.625         -0.324          0.077         -0.225         -0.349         -0.265         -0.184         -0.186         -0.160         -0.168         -0.119         -0.100         -0.097         -0.083          0.905         -0.933         -0.047         -0.062         -0.047         -0.034         -0.025         -0.012          0.006          0.008          0.002         -0.018          0.008         -0.008         -0.015          0.023         -0.006          0.014         -0.009          0.038          0.043         -0.104         -0.601          0.080          0.110          0.104          0.112          0.140          0.138          0.160          0.127          0.257          0.125          0.045          0.079          0.085          0.036         -0.075         -0.062         -0.022         -0.079         -0.192         -0.085         -0.123         -0.140         -0.123         -0.092         -0.007         -0.071          0.008          1.615          0.175          0.121          0.091          0.220          0.113          0.470          0.087         -0.063          0.070          1.480          0.049          0.002          0.026         -0.051          1.661          0.825          0.004         -0.019          1.124         -0.069          0.008         -0.108         -0.208         -0.176         -0.123         -0.119         -0.099         -0.067         -0.051         -0.072         -0.067         -0.044         -0.372         -0.046         -0.023         -0.018         -0.028         -0.027         -0.127         -0.017         -0.303         -0.153         -0.188         -0.138          0.016         -0.010          0.022          0.039         -0.564          0.670         -0.369         -0.302          0.057          0.084          0.073          0.093          0.085          0.087          0.117          0.132          0.187          0.179          0.169          0.161          0.192          0.178          0.194          0.484          0.030         -0.046          0.805          0.393         -0.105         -0.229          2.813         -0.056         -0.143         -0.489         -0.090         -0.045          0.028          0.027          0.056         -0.065          0.052         -0.106          0.304          0.358          2.096          0.304          1.394          0.708          0.429          0.063          0.791          0.494         -0.040         -0.323         -1.703         -0.141         -0.293         -0.114         -0.212         -0.173         -0.061         -0.086         -0.104         -0.122         -0.079         -0.079         -0.081         -0.051         -0.018          0.020          0.656          0.015         -0.664         -0.429          0.001         -0.030          0.057         -0.323          1.330        135.655