# Time	LEU-41	ALA-42	ILE-43	VAL-44	PHE-45	GLY-46	ASN-47	GLY-48	LEU-49	VAL-50	CYS-51	MET-52	ALA-53	VAL-54	LEU-55	LYS-56	GLU-57	ARG-58	ALA-59	LEU-60	GLN-61	THR-62	THR-63	THR-64	ASN-65	TYR-66	LEU-67	VAL-68	VAL-69	SER-70	LEU-71	ALA-72	VAL-73	ALA-74	ASH-75	LEU-76	LEU-77	VAL-78	ALA-79	THR-80	LEU-81	VAL-82	MET-83	PRO-84	TRP-85	VAL-86	VAL-87	TYR-88	LEU-89	GLU-90	VAL-91	THR-92	GLY-93	GLY-94	VAL-95	TRP-96	ASN-97	PHE-98	SER-99	ARG-100	ILE-101	CYS-102	CYX-103	ASP-104	VAL-105	PHE-106	VAL-107	THR-108	LEU-109	ASP-110	VAL-111	MET-112	MET-113	CYS-114	THR-115	ALA-116	SER-117	ILE-118	TRP-119	ASN-120	LEU-121	CYS-122	ALA-123	ILE-124	SER-125	ILE-126	ASP-127	ARG-128	TYR-129	THR-130	ALA-131	VAL-132	VAL-133	MET-134	PRO-135	VAL-136	HID-137	TYR-138	GLN-139	HID-140	GLY-141	THR-142	GLY-143	GLN-144	SER-145	SER-146	CYS-147	ARG-148	ARG-149	VAL-150	ALA-151	LEU-152	MET-153	ILE-154	THR-155	ALA-156	VAL-157	TRP-158	VAL-159	LEU-160	ALA-161	PHE-162	ALA-163	VAL-164	SER-165	CYS-166	PRO-167	LEU-168	LEU-169	PHE-170	GLY-171	PHE-172	ASN-173	THR-174	THR-175	GLY-176	ASP-177	PRO-178	THR-179	VAL-180	CYX-181	SER-182	ILE-183	SER-184	ASN-185	PRO-186	ASP-187	PHE-188	VAL-189	ILE-190	TYR-191	SER-192	SER-193	VAL-194	VAL-195	SER-196	PHE-197	TYR-198	LEU-199	PRO-200	PHE-201	GLY-202	VAL-203	THR-204	VAL-205	LEU-206	VAL-207	TYR-208	ALA-209	ARG-210	ILE-211	TYR-212	VAL-213	VAL-214	LEU-215	LYS-216	GLN-217	ARG-218	ARG-219	ARG-220	LYS-221	GLY-319	VAL-320	PRO-321	LEU-322	ARG-323	GLU-324	LYS-325	LYS-326	ALA-327	THR-328	GLN-329	MET-330	VAL-331	ALA-332	ILE-333	VAL-334	LEU-335	GLY-336	ALA-337	PHE-338	ILE-339	VAL-340	CYS-341	TRP-342	LEU-343	PRO-344	PHE-345	PHE-346	LEU-347	THR-348	HIE-349	VAL-350	LEU-351	ASN-352	THR-353	HID-354	CYX-355	GLN-356	THR-357	CYX-358	HID-359	VAL-360	SER-361	PRO-362	GLU-363	LEU-364	TYR-365	SER-366	ALA-367	THR-368	THR-369	TRP-370	LEU-371	GLY-372	TYR-373	VAL-374	ASN-375	SER-376	ALA-377	LEU-378	ASN-379	PRO-380	VAL-381	ILE-382	TYR-383	THR-384	THR-385	PHE-386	ASN-387	ILE-388	GLU-389	PHE-390	ARG-391	LYS-392	ALA-393	PHE-394	LEU-395	LYS-396	ILE-397	DPN-14602	
          0.000         14.777         -0.086         -0.134         -0.237          0.063          0.422          0.948          0.111          0.219          0.415          0.093          0.235          0.266          0.327          0.259         10.762         -9.989          8.720         -0.007         -0.132          0.339         -0.228         -0.240         -0.479         -0.689         -0.340         -0.510         -0.571         -0.551         -0.622         -0.984         -0.737         -0.559         -0.431         -0.075         -0.545          0.134          0.392         -0.125          0.196          0.356          0.986         -1.044         -0.177          0.625          0.696         -0.269          0.173          1.520        -26.327          0.434          0.428          0.754         -0.099          0.055         -0.176         -0.186          0.458         -0.928         23.041         -0.749         -0.616         -1.956        -24.440         -1.538         -2.783         -2.981         -1.559         -0.409       -113.006         -6.357          0.888          2.865          1.283          0.958          1.037          2.267          1.215          1.432          0.802          0.840          0.809          0.543          0.569          0.546          0.406        -12.167         12.174          0.210          0.295          0.238          0.242          0.191          0.000         -0.082         -0.082         -0.172          0.122          0.014          0.174          0.089         -0.081         -0.058         -0.045          0.039         -0.199         -0.329          9.435         10.688         -0.352         -0.398         -0.369         -0.240         -0.607         -0.566         -0.364         -0.586         -0.966         -0.414         -0.440         -1.018         -0.735         -0.092         -0.911          0.294         -0.021          0.510          1.179          0.530          0.445          1.002          0.955         -1.420         -0.268          0.021          0.088        -18.407         -0.797         -0.664         -0.116         -1.118          3.402         -2.523          0.255         -1.881         -0.954        -19.357         -1.848         -3.004         -0.842          0.771         -6.241         -1.412         -0.228          0.578         -3.461         -0.116          0.573          0.590          0.821          0.504          0.377          0.565          0.523          0.294          0.292          0.418          0.194          0.205         10.172          0.298          0.144          0.176          0.194          0.228          8.878          0.127          8.926          8.876          7.648          7.294         -0.116          0.075         -0.156         -0.193          9.838        -10.794          9.068          9.396         -0.299         -0.392         -0.514         -0.197         -0.472         -0.478         -0.481         -0.618         -0.768         -0.650         -0.665         -0.879         -1.096         -0.459         -1.193         -2.766         -0.668          0.388         -5.356         -3.325          0.190          1.408         -2.379         -0.037          0.287          2.381          0.153         -0.332         -0.189          0.480         -0.364          0.404          0.224          0.252         -1.183         -1.220        -20.155         -1.090         -3.758         -3.797         -1.189         -1.205         -5.336         -2.038          0.288          3.497          3.891          0.863          1.133          2.151          0.794          0.901          1.475          0.423          0.451          0.564          0.475          0.395          0.429          0.305          0.150         -0.121        -10.124          0.107         10.944          9.286          0.092          0.109         -0.233         10.981        -13.577       -119.504
       4000.000         14.947         -0.031         -0.177         -0.181         -0.044          0.300          0.522          0.114          0.256          0.445          0.307          0.281          0.269          0.351          0.252         10.060         -9.873          8.761         -0.065         -0.085          0.322         -0.256         -0.271         -0.263         -0.649         -0.314         -0.527         -0.484         -0.546         -0.715         -0.825         -0.686         -0.495         -0.637         -0.340         -0.660         -0.229          0.124         -0.271          0.064          0.195          0.550         -0.939         -0.027          0.701          1.164         -0.258          0.664          1.716        -28.467          0.506          0.386          0.907         -0.300         -0.030         -0.389          0.234          0.602         -1.071         23.558         -1.122         -0.927         -2.229        -24.571         -1.327         -2.615         -3.258         -1.608         -0.495       -115.205         -6.088          0.197          2.454          0.514          1.184          1.066          1.703          1.124          1.345          0.775          0.852          0.805          0.525          0.519          0.501          0.382        -11.978         12.116          0.191          0.300          0.241          0.234          0.175         -0.030         -0.090         -0.044         -0.155          0.062         -0.062          0.082          0.105         -0.126         -0.118         -0.022          0.021         -0.203         -0.249          9.256         11.047         -0.363         -0.376         -0.398         -0.236         -0.555         -0.415         -0.354         -0.578         -0.805         -0.566         -0.356         -0.712         -0.831         -0.155         -0.282          0.138          0.203          0.458          0.795          0.230          0.331          0.746          0.677          0.725         -0.377          0.268          0.047        -17.979         -0.905         -0.629         -0.157         -1.919          3.332         -0.819          0.068         -1.881         -0.982        -18.722         -2.220         -1.507         -0.618          0.684         -8.205         -2.407         -0.315          0.157         -2.653         -0.102          0.775          0.535          0.831          0.498          0.350          0.475          0.379          0.329          0.268          0.391          0.290          0.242         10.126          0.317          0.173          0.159          0.195          0.218          8.897          0.116          8.907          8.555          7.168          7.191         -0.141          0.081         -0.170         -0.212         10.158        -10.681          9.213          9.935         -0.282         -0.398         -0.169         -0.128         -0.420         -0.413         -0.380         -0.590         -0.766         -0.468         -0.530         -1.201         -1.216         -0.862         -1.234         -2.933         -1.167          0.018         -3.510         -1.754         -0.211          1.715          1.790          0.247          0.367          2.558          0.160         -0.297         -0.136         -0.474         -0.379          0.355         -0.047         -0.167         -1.317         -1.521        -21.682         -1.168         -4.495         -3.229         -1.020         -2.178         -5.253         -1.640          0.731          3.330         -0.953          0.747          1.264          1.988          0.743          0.876          1.503          0.471          0.535          0.525          0.442          0.343          0.378          0.300          0.055         -0.127        -10.460         -0.077         10.766          9.253          0.082          0.092         -0.253         11.143        -13.953       -127.921
       8000.000         14.602         -0.045         -0.273         -0.255          0.008          0.415          0.777          0.162          0.208          0.408          0.101          0.213          0.286          0.349          0.236         10.412        -10.056          8.633         -0.049         -0.078          0.450         -0.213         -0.176         -0.548         -0.640         -0.285         -0.538         -0.614         -0.564         -0.713         -0.803         -0.651         -0.577         -0.511         -0.170         -0.659          0.088          0.130          0.017          0.099          0.202          0.725         -1.343         -0.346          0.330          0.620         -0.007          0.373          1.411        -29.956          0.335          0.376          1.097          0.101          0.111          0.018          0.909          0.624         -0.836         22.611         -0.832         -0.682         -1.914        -24.574         -1.389         -1.641         -2.410         -0.994         -0.874       -112.467         -6.850         -0.041          1.790          1.094          0.639          1.131          2.433          1.142          1.378          0.697          0.915          0.798          0.503          0.541          0.548          0.363        -11.995         12.325          0.189          0.252          0.223          0.230          0.185          0.001         -0.080         -0.047         -0.186          0.061         -0.252          0.036          0.095         -0.080          0.004         -0.009         -0.030         -0.203         -0.270          9.407         11.102         -0.329         -0.396         -0.348         -0.172         -0.518         -0.537         -0.407         -0.483         -0.990         -0.570         -0.481         -0.603         -0.721         -0.213         -0.243          0.415          0.174          0.527          0.880          0.436          0.400          0.957          0.532         -0.408         -0.317          0.292          0.112        -18.152         -0.679         -0.580          0.022         -1.388          2.488         -0.446          0.387         -2.447         -1.074        -19.381         -2.386         -2.178         -0.914          0.336         -6.905         -1.513         -0.198          0.426         -3.283          0.038          0.201          0.471          0.849          0.584          0.307          0.495          0.472          0.380          0.300          0.415          0.154          0.230          9.957          0.298          0.191          0.168          0.189          0.223          9.064          0.058          8.867          8.508          7.646          7.409         -0.127          0.022         -0.179         -0.219         10.196        -10.810          9.237          9.362         -0.302         -0.433         -0.426         -0.338         -0.460         -0.434         -0.368         -0.571         -0.738         -0.408         -0.481         -1.037         -1.119         -0.732         -1.112         -3.651         -1.245          0.130         -6.885         -3.081         -0.001          2.028         -2.399         -0.079          0.355          2.450          0.416         -0.288          0.028         -0.243         -0.152          0.412          0.047          0.203         -1.472         -1.422        -20.950         -1.283         -1.989         -3.125         -1.004         -2.463         -5.867         -2.395          0.548          4.180          2.595          1.045          1.441          2.199          0.826          0.894          1.422          0.475          0.488          0.542          0.418          0.396          0.431          0.282          0.138         -0.147        -10.507         -0.011         10.820          9.230          0.098          0.131         -0.243         11.123        -14.004       -127.195
      12000.000         14.708         -0.095         -0.309         -0.124          0.063          0.454          0.657          0.106          0.125          0.370          0.049          0.241          0.306          0.348          0.270         10.412        -10.093          8.445          0.025         -0.072          0.409         -0.245         -0.253         -0.494         -0.646         -0.345         -0.614         -0.672         -0.571         -0.858         -0.881         -0.692         -0.474         -0.915         -0.720         -0.487         -0.106          0.370         -0.423         -0.166          0.135          1.594         -0.618         -0.188          0.738          0.928         -0.107          0.489          1.177        -29.507          0.292          0.232          0.550          0.390          0.346         -0.028          0.356         -0.196         -1.158         24.852         -1.004         -0.675         -2.225        -25.069         -1.230         -2.980         -3.055         -1.421         -0.378       -117.277         -6.317         -0.192          2.229          0.503          0.722          1.196          2.436          1.005          1.166          1.195          0.886          0.841          0.515          0.519          0.475          0.344        -11.999         12.287          0.222          0.247          0.241          0.240          0.190         -0.040         -0.048         -0.070         -0.164          0.086          0.048          0.028          0.133         -0.095         -0.014         -0.109         -0.038         -0.267         -0.295          9.256         11.006         -0.309         -0.389         -0.388         -0.396         -0.537         -0.346         -0.372         -0.609         -1.045         -0.598         -0.474         -0.929         -0.851         -0.143         -0.493          0.288         -0.159          0.415          1.093          0.566          0.474          0.897          0.560          1.468         -1.075         -0.457          0.448        -19.771         -0.902         -0.758          0.274         -0.987          1.250         -2.095          0.963         -1.397         -0.848        -18.301         -0.918         -1.561         -0.616          0.670         -5.771         -1.403         -0.337          0.246         -2.973         -0.220          0.580          0.470          0.752          0.460          0.291          0.449          0.459          0.330          0.283          0.410          0.299          0.226         10.026          0.303          0.246          0.135          0.180          0.253          9.076          0.213          8.916          8.683          7.499          7.383         -0.132          0.079         -0.182         -0.227         10.187        -10.801          9.216          9.745         -0.304         -0.468         -0.386         -0.540         -0.423         -0.400         -0.415         -0.519         -0.772         -0.525         -0.517         -1.217         -1.129         -0.608         -0.453         -3.210         -1.108          0.167         -8.725         -3.382         -0.185          1.878         -1.137         -0.043          0.551          2.496          0.152         -0.573         -0.308         -0.251         -0.407          0.312         -0.088          0.125         -1.479         -1.230        -19.664         -1.082         -3.184         -2.553         -1.243         -1.844         -5.706         -2.097          0.514          3.999          4.101          0.661          1.011          2.256          0.800          0.809          1.330          0.538          0.538          0.588          0.565          0.388          0.460          0.276          0.081         -0.150        -10.423         -0.127         10.979          9.368          0.061          0.158         -0.215         11.060        -13.643       -129.073
      16000.000         14.732          0.007         -0.006         -0.194          0.082          0.414          0.619          0.167          0.179          0.374          0.003          0.278          0.249          0.277          0.204         10.401         -9.937          9.100         -0.011         -0.124          0.295         -0.273         -0.229         -0.563         -0.659         -0.262         -0.541         -0.615         -0.593         -0.554         -0.809         -0.580         -0.494         -0.697         -0.367         -0.481         -0.117          0.358         -0.146          0.102          0.211          0.220         -1.813         -0.285          0.504          0.957         -0.217          0.380          1.578        -29.962          0.428          0.357          0.966         -0.534         -0.227         -0.036          0.817         -0.639         -1.162         24.443         -1.039         -0.752         -2.163        -25.865         -1.269         -1.946         -2.752         -1.359         -0.403       -101.249         -6.478          0.209          1.958          1.681          0.673          0.945          2.257          1.211          1.179          1.145          0.774          0.924          0.488          0.530          0.452          0.354        -11.818         12.104          0.210          0.241          0.228          0.234          0.199         -0.004         -0.073         -0.031         -0.154          0.096         -0.002          0.133          0.094         -0.124         -0.039          0.126          0.024         -0.217         -0.320          9.156         11.071         -0.341         -0.413         -0.417         -0.218         -0.561         -0.485         -0.387         -0.578         -0.798         -0.462         -0.570         -0.810         -0.733         -0.099         -0.428          0.235          0.062          0.568          1.018          0.458          0.484          0.847          0.620         -0.025         -0.148          0.697          0.675        -19.229         -0.683         -0.088          0.449         -1.311          1.616         -1.718          0.092         -1.621         -0.819        -19.277         -1.133         -2.231         -0.468          0.709         -7.468         -2.219         -0.150          0.343         -1.888         -0.391          0.776          0.480          0.828          0.534          0.355          0.476          0.575          0.317          0.273          0.405          0.242          0.221         10.182          0.315          0.243          0.178          0.191          0.229          9.427          0.296          8.882          8.675          7.391          7.459         -0.108          0.064         -0.171         -0.202          9.923        -10.629          9.563          9.363         -0.293         -0.445         -0.597         -0.258         -0.459         -0.388         -0.395         -0.551         -0.809         -0.516         -0.713         -1.125         -1.033         -0.783         -1.276         -2.311         -0.672         -0.000         -5.263         -3.289         -0.152          1.807         -3.515         -0.183          0.615          2.867         -0.236         -0.491         -0.495         -0.132         -0.362          0.261          0.054          0.596         -1.476         -1.368        -20.779         -1.056         -3.454         -1.389         -0.735         -1.852         -4.590         -0.997          0.354          3.387          0.054          0.718          0.680          1.894          0.643          0.854          1.354          0.486          0.489          0.595          0.424          0.363          0.435          0.289          0.035         -0.167        -10.248          0.025         10.910          9.261          0.039          0.106         -0.243         10.953        -13.732       -114.609
      20000.000         13.778          0.040         -0.038         -0.060          0.033          0.390          0.607          0.146          0.158          0.351          0.101          0.320          0.269          0.309          0.242         10.124         -9.578          8.516         -0.044         -0.053          0.383         -0.202         -0.200         -0.423         -0.559         -0.251         -0.430         -0.502         -0.425         -0.597         -0.753         -0.655         -0.490         -0.740         -0.517         -0.547         -0.250          0.021         -0.273         -0.151          0.214         -0.172         -0.854         -0.183          0.737          0.301         -0.234          0.511          1.475        -31.514          0.426          0.192          1.282         -0.203          0.083          0.294          0.654         -0.698         -1.519         24.326         -0.930         -0.842         -2.643        -27.647         -1.381         -2.502         -3.124         -1.173         -0.023        -98.625         -6.534          0.188          2.171          1.484          0.862          0.879          1.969          1.028          1.096          0.721          0.729          0.676          0.446          0.448          0.431          0.323        -11.235         11.415          0.168          0.218          0.224          0.208          0.189          0.036         -0.083         -0.044         -0.140          0.066         -0.198          0.130          0.120         -0.105         -0.050         -0.006          0.009         -0.199         -0.209          8.874         10.625         -0.315         -0.370         -0.362         -0.238         -0.509         -0.490         -0.437         -0.567         -0.906         -0.507         -0.482         -0.820         -0.701         -0.230         -0.679         -0.205         -0.157          0.301          1.506          0.528          0.533          0.864          0.539         -0.024         -0.147         -0.032          0.590        -21.123         -1.085         -0.507          0.026         -1.359          0.575         -3.422         -1.434          0.713         -0.967        -20.158         -1.079         -1.964         -0.592          0.654         -4.975         -1.007         -0.151          0.382         -3.512         -0.076          0.925          0.525          0.781          0.475          0.386          0.462          0.484          0.287          0.223          0.374          0.214          0.204          9.673          0.265          0.216          0.157          0.185          0.209          9.014          0.015          8.578          8.343          6.902          7.012         -0.118          0.100         -0.146         -0.185          9.483        -10.116          8.793          9.315         -0.268         -0.371         -0.574         -0.439         -0.410         -0.362         -0.374         -0.489         -0.610         -0.584         -0.678         -0.985         -0.900         -0.576         -0.249         -2.310         -0.819         -0.080         -2.507         -3.843         -0.175          1.549         -4.037         -0.198          0.269          3.059         -0.094         -0.455         -0.641          0.184         -0.415          0.362          0.087          0.068         -1.539         -1.408        -20.919         -0.730         -3.321         -2.487         -0.712         -1.134         -4.314         -0.708          0.595          2.707          4.765          0.598          0.782          1.699          0.675          0.787          1.310          0.500          0.471          0.500          0.352          0.346          0.238          0.236          0.040         -0.151         -9.722         -0.053         10.409          8.912          0.063          0.094         -0.178         10.592        -13.714       -122.413
      24000.000         14.920         -0.022         -0.229         -0.251          0.005          0.314          0.755          0.141          0.213          0.483          0.052          0.357          0.296          0.416          0.251         10.798        -10.325          8.819         -0.052         -0.111          0.436         -0.252         -0.253         -0.640         -0.690         -0.244         -0.598         -0.647         -0.612         -0.677         -0.994         -0.693         -0.545         -0.497         -0.303         -0.697          0.178          0.492          0.014          0.687          0.752          0.862          1.004         -0.220          0.931          1.086         -0.033          0.375          1.749        -29.298          0.368          0.497          0.367         -0.011          0.117         -0.331         -0.120         -0.424         -1.137         23.127         -0.881         -0.625         -1.978        -24.127         -1.349         -2.321         -2.803         -0.938         -0.746       -118.531         -7.846          0.033          1.478         -0.160          0.952          1.200          2.594          1.168          1.397          1.313          0.920          0.915          0.562          0.602          0.573          0.415        -12.409         12.709          0.245          0.291          0.256          0.254          0.216          0.064         -0.067         -0.064         -0.181          0.071         -0.136          0.076          0.111         -0.142         -0.059         -0.187          0.070         -0.214         -0.249          9.509         11.430         -0.332         -0.403         -0.386         -0.445         -0.512         -0.499         -0.365         -0.513         -1.081         -0.358         -0.165         -0.446         -0.519          0.032          0.295          0.444          0.029          0.338          0.875          0.327          0.410          0.693          0.653          0.441         -0.192          0.753          0.572        -18.718         -0.887         -0.997          0.356          0.676          0.772         -2.654         -1.285          0.014         -0.539        -16.796         -0.240         -1.219         -0.984         -0.071         -4.364         -1.933         -0.531          0.142         -3.047          0.144          0.757          0.572          1.053          0.611          0.337          0.504          0.520          0.320          0.257          0.382          0.377          0.242         10.325          0.312          0.269          0.167          0.202          0.222          9.165          0.237          9.120          9.117          8.716          7.909         -0.142          0.101         -0.158         -0.214         10.508        -11.194         10.173         10.026         -0.316         -0.450         -0.358         -0.560         -0.443         -0.380         -0.392         -0.633         -0.849         -0.737         -0.789         -1.140         -1.158         -0.641         -1.452         -3.747         -0.967          0.176         -4.647         -4.484          0.060          2.080         -4.014          0.279          0.585          2.829          0.449         -0.540         -0.313         -0.207         -0.160          0.364         -0.027          0.045         -1.449         -1.334        -21.305         -1.166         -5.009         -2.349         -1.720         -2.459         -6.370         -1.767          0.495          3.910          0.944          1.017          0.508          2.516          0.852          0.972          1.777          0.469          0.509          0.642          0.467          0.464          0.464          0.317          0.141         -0.103        -10.789         -0.133         11.193          9.544          0.009          0.102         -0.236         11.313        -14.711       -123.161