# Time	LEU-41	ALA-42	ILE-43	VAL-44	PHE-45	GLY-46	ASN-47	GLY-48	LEU-49	VAL-50	CYS-51	MET-52	ALA-53	VAL-54	LEU-55	LYS-56	GLU-57	ARG-58	ALA-59	LEU-60	GLN-61	THR-62	THR-63	THR-64	ASN-65	TYR-66	LEU-67	VAL-68	VAL-69	SER-70	LEU-71	ALA-72	VAL-73	ALA-74	ASH-75	LEU-76	LEU-77	VAL-78	ALA-79	THR-80	LEU-81	VAL-82	MET-83	PRO-84	TRP-85	VAL-86	VAL-87	TYR-88	LEU-89	GLU-90	VAL-91	THR-92	GLY-93	GLY-94	VAL-95	TRP-96	ASN-97	PHE-98	SER-99	ARG-100	ILE-101	CYS-102	CYX-103	ASP-104	VAL-105	PHE-106	VAL-107	THR-108	LEU-109	ASP-110	VAL-111	MET-112	MET-113	CYS-114	THR-115	ALA-116	SER-117	ILE-118	TRP-119	ASN-120	LEU-121	CYS-122	ALA-123	ILE-124	SER-125	ILE-126	ASP-127	ARG-128	TYR-129	THR-130	ALA-131	VAL-132	VAL-133	MET-134	PRO-135	VAL-136	HID-137	TYR-138	GLN-139	HID-140	GLY-141	THR-142	GLY-143	GLN-144	SER-145	SER-146	CYS-147	ARG-148	ARG-149	VAL-150	ALA-151	LEU-152	MET-153	ILE-154	THR-155	ALA-156	VAL-157	TRP-158	VAL-159	LEU-160	ALA-161	PHE-162	ALA-163	VAL-164	SER-165	CYS-166	PRO-167	LEU-168	LEU-169	PHE-170	GLY-171	PHE-172	ASN-173	THR-174	THR-175	GLY-176	ASP-177	PRO-178	THR-179	VAL-180	CYX-181	SER-182	ILE-183	SER-184	ASN-185	PRO-186	ASP-187	PHE-188	VAL-189	ILE-190	TYR-191	SER-192	SER-193	VAL-194	VAL-195	SER-196	PHE-197	TYR-198	LEU-199	PRO-200	PHE-201	GLY-202	VAL-203	THR-204	VAL-205	LEU-206	VAL-207	TYR-208	ALA-209	ARG-210	ILE-211	TYR-212	VAL-213	VAL-214	LEU-215	LYS-216	GLN-217	ARG-218	ARG-219	ARG-220	LYS-221	GLY-319	VAL-320	PRO-321	LEU-322	ARG-323	GLU-324	LYS-325	LYS-326	ALA-327	THR-328	GLN-329	MET-330	VAL-331	ALA-332	ILE-333	VAL-334	LEU-335	GLY-336	ALA-337	PHE-338	ILE-339	VAL-340	CYS-341	TRP-342	LEU-343	PRO-344	PHE-345	PHE-346	LEU-347	THR-348	HIE-349	VAL-350	LEU-351	ASN-352	THR-353	HID-354	CYX-355	GLN-356	THR-357	CYX-358	HID-359	VAL-360	SER-361	PRO-362	GLU-363	LEU-364	TYR-365	SER-366	ALA-367	THR-368	THR-369	TRP-370	LEU-371	GLY-372	TYR-373	VAL-374	ASN-375	SER-376	ALA-377	LEU-378	ASN-379	PRO-380	VAL-381	ILE-382	TYR-383	THR-384	THR-385	PHE-386	ASN-387	ILE-388	GLU-389	PHE-390	ARG-391	LYS-392	ALA-393	PHE-394	LEU-395	LYS-396	ILE-397	DPN-14602	
          0.000         14.100          0.119          0.050         -0.030          0.079          0.309          0.572          0.183          0.209          0.285          0.340          0.120          0.192          0.194          0.170          9.312         -8.657          7.726         -0.012         -0.061          0.265         -0.156         -0.223         -0.107         -0.444         -0.240         -0.269         -0.342         -0.343         -0.393         -0.498         -0.352         -0.391         -0.557         -1.459         -0.605         -0.467         -0.707         -0.507         -0.247         -0.556         -0.871         -0.942         -0.908          0.253         -4.687         -1.487         -0.490         -0.072       -105.132         -0.413          0.627         -1.887         -2.857          0.437          0.542         -0.659          0.128         -0.667         21.552         -0.479         -0.280         -0.973        -20.594         -0.485         -2.306         -1.144          0.038          0.638        -72.841         -0.203          0.395          1.244          1.558          0.125          0.564          1.019          0.632          0.710          1.006          0.498          0.556          0.268          0.311          0.320          0.234         -9.974         10.579          0.224          0.159          0.173          0.164          0.153         -0.064         -0.067         -0.024         -0.142          0.055         -0.176          0.117          0.043         -0.019         -0.021         -0.039         -0.025         -0.180         -0.242          7.701          9.286         -0.208         -0.221         -0.221         -0.173         -0.313         -0.337         -0.262         -0.225         -0.456         -0.250         -0.289         -0.401         -0.462         -0.160         -0.231         -0.015          0.189          0.269          0.546          0.039          0.251          0.499          0.249          0.193         -0.313          0.001          0.405        -23.514         -0.522         -0.189          1.353          1.787         -0.952         -3.678         -0.625         -0.542         -0.217        -16.736          0.166          0.173         -0.431          0.294          0.048          0.547          0.021          0.308          0.149          0.459          0.528          0.284          0.514          0.437          0.212          0.246          0.389          0.299          0.220          0.216          0.155          0.190          8.992          0.232          0.156          0.123          0.149          0.185          8.712          0.050          7.783          7.516          6.939          6.555          0.049          0.063         -0.155         -0.155          8.420         -9.523          8.132          9.074         -0.246         -0.277         -0.157         -0.287         -0.376         -0.334         -0.371         -0.459         -0.557         -0.481         -0.585         -0.768         -0.583         -0.721         -0.841         -1.830         -0.922         -0.788         -3.633         -1.430         -0.280          1.392         -4.079         -0.372          0.845          1.508          0.059          0.272         -0.527         -1.243         -0.857         -0.457          0.113          0.079         -3.165         -5.196        -34.612         -0.850         -8.558          1.457          0.051          1.652         -4.192          2.855          0.951          2.261         -0.496          0.753          0.685          1.170          0.590          0.612          0.933          0.390          0.382          0.399          0.262          0.269          0.298          0.232          0.213         -0.027         -8.794          0.131          9.487          8.055          0.120          0.082          0.082          8.081         -8.209       -180.281
       4000.000         13.311          0.039          0.089          0.021          0.108          0.319          0.610          0.154          0.161          0.304          0.093          0.126          0.210          0.237          0.192          8.763         -8.502          8.039         -0.030         -0.104          0.243         -0.132         -0.208         -0.359         -0.465         -0.178         -0.353         -0.356         -0.387         -0.450         -0.482         -0.379         -0.410         -0.371         -1.105         -0.646         -0.414         -0.623         -0.437          0.015         -0.415         -1.242         -1.329         -1.093         -0.917         -4.001         -1.834         -0.255          0.548       -108.938         -0.292          1.050         -2.920         -0.916          0.009          0.239         -0.549         -0.152         -0.505         20.245         -0.494         -0.328         -0.806        -20.051         -0.549         -2.823         -2.898         -0.252          0.399        -76.137         -0.248          0.399          1.310          1.021          0.226          0.532          0.952          0.772          0.697          1.004          0.576          0.423          0.311          0.330          0.344          0.258        -10.014         10.710          0.161          0.169          0.175          0.183          0.164          0.024         -0.064         -0.033         -0.147         -0.075         -0.051          0.065         -0.028         -0.128         -0.140         -0.167         -0.028         -0.211         -0.156          8.104          9.553         -0.221         -0.246         -0.237         -0.194         -0.320         -0.269         -0.263         -0.362         -0.467         -0.265         -0.238         -0.435         -0.447         -0.122         -0.127          0.253          0.135          0.379          0.477          0.061          0.222          0.335          0.129         -0.068         -0.605         -0.303          0.249        -24.061         -1.063         -0.434          1.417          2.077         -4.636         -5.178          0.699         -0.817         -0.766        -17.372         -0.214         -0.075         -0.326          0.225         -0.409          0.758         -0.171          0.338          0.150          0.494          0.919          0.309          0.455          0.496          0.301          0.286          0.505          0.306          0.189          0.245          0.295          0.148          9.044          0.242          0.211          0.132          0.138          0.176          8.841          0.209          8.014          8.231          8.488          6.746         -0.043          0.079         -0.158         -0.164          8.373         -9.642          9.454          9.167         -0.259         -0.240         -0.063         -0.348         -0.422         -0.362         -0.395         -0.489         -0.595         -0.524         -0.664         -0.938         -0.687         -0.865         -0.759         -2.237         -1.185         -1.051         -4.003         -1.371         -0.354          1.889         -5.219         -0.052          0.981          2.385          0.304          0.521         -0.550         -1.426         -0.454          0.630          0.987          0.787         -2.991         -4.052        -31.514         -0.920        -20.854          0.829         -0.351          0.581         -7.985          1.060          1.280          2.439          0.349          0.927          0.606          1.213          0.546          0.682          0.491          0.385          0.400          0.389          0.207          0.087          0.340          0.230          0.174         -0.016         -8.899          0.169         10.090          8.120          0.114          0.096          0.121          7.534         -8.193       -207.251
       8000.000         13.067          0.018         -0.096         -0.060          0.020          0.232          0.515          0.079          0.148          0.274          0.115          0.162          0.175          0.216          0.156          8.789         -8.094          7.255         -0.023         -0.099          0.243         -0.202         -0.215         -0.363         -0.455         -0.249         -0.311         -0.331         -0.353         -0.504         -0.462         -0.452         -0.412         -0.498         -1.027         -0.485         -0.491         -0.665         -0.423         -0.068         -0.545         -1.094         -1.949         -1.187          0.101         -7.336         -1.750         -0.445          0.665       -101.109         -0.285          0.885         -3.345         -1.662         -0.124          0.426         -0.738         -0.382         -0.678         26.571         -0.617         -0.082         -0.704        -24.584         -0.416         -2.546         -1.665          0.159          0.380        -75.865          0.411          0.524          1.353          2.285          0.668          0.608          0.848          0.636          0.820          1.055          0.465          0.440          0.271          0.345          0.346          0.221         -9.749         10.382          0.158          0.173          0.173          0.175          0.155         -0.057         -0.078         -0.041         -0.164         -0.071         -0.188         -0.009         -0.043         -0.142         -0.104         -0.040          0.004         -0.254         -0.196          7.688          9.307         -0.221         -0.228         -0.228         -0.199         -0.344         -0.322         -0.254         -0.401         -0.523         -0.295         -0.331         -0.492         -0.575         -0.100          0.033         -0.040         -0.072          0.348          0.414          0.071          0.170          0.376          0.157         -0.701         -0.377         -0.747          0.408        -25.787         -1.039          0.075          2.098          2.636         -4.760         -4.186          0.677         -0.390         -0.316        -18.235          0.157          0.235         -0.221          0.372          0.216          0.856          0.015          0.331          0.047          0.468          0.732          0.301          0.524          0.425          0.281          0.268          0.390          0.297          0.200          0.209          0.195          0.190          8.849          0.215          0.109          0.135          0.155          0.162          8.321          0.029          7.941          7.375          7.173          6.405         -0.074          0.039         -0.109         -0.148          8.228         -9.304          8.103          9.044         -0.224         -0.226         -0.314         -0.427         -0.353         -0.309         -0.315         -0.395         -0.565         -0.439         -0.492         -0.741         -0.489         -0.676         -0.581         -1.755         -0.942         -0.664         -1.589         -1.499         -0.674          0.680         -7.024         -0.831          0.271          1.943         -0.473         -0.144         -0.275         -0.073          0.340          1.081          1.659         -0.146         -1.825         -3.501        -34.907         -0.953        -14.496          0.668         -0.115          0.387         -2.240          1.261          0.703          1.773         -2.782          0.605          0.454          1.057          0.484          0.590          0.676          0.307          0.324          0.365          0.214          0.274          0.304          0.184          0.252          0.003         -8.511          0.109          9.140          7.635          0.096          0.094          0.117          7.118         -7.805       -199.573
      12000.000         13.288          0.021          0.047         -0.029          0.099          0.284          0.287          0.149          0.156          0.262          0.117          0.067          0.181          0.204          0.189          8.919         -8.159          7.926         -0.032         -0.073          0.245         -0.215         -0.217         -0.261         -0.430         -0.175         -0.317         -0.302         -0.339         -0.382         -0.473         -0.417         -0.375         -0.482         -0.935         -0.516         -0.504         -0.761         -0.460         -0.164         -0.393         -1.021         -1.626         -0.989          0.171         -4.332         -2.020         -0.641          1.296        -98.822         -0.549          0.743         -2.874         -1.654          0.061          0.608         -0.088         -0.343         -0.620         24.435         -0.634         -0.508         -0.717        -23.207         -0.221         -1.792         -1.010          0.320          0.687        -77.474         -0.489          0.418          0.591          1.833          0.608          0.440          0.851          0.646          0.773          0.964          0.431          0.476          0.289          0.306          0.323          0.229         -9.724         10.351          0.179          0.185          0.171          0.177          0.143         -0.046         -0.024         -0.029         -0.135         -0.037         -0.146          0.008         -0.063         -0.109         -0.133         -0.176         -0.043         -0.167         -0.200          7.808          9.191         -0.234         -0.246         -0.275         -0.298         -0.327         -0.297         -0.262         -0.361         -0.530         -0.292         -0.335         -0.482         -0.439         -0.074         -0.137         -0.124          0.148          0.284          0.584          0.153          0.222          0.541          0.142          0.182         -0.509         -0.022          0.874        -28.440         -0.976          0.219          2.149          2.091         -2.980         -6.870          0.683         -0.047         -0.320        -18.212          0.282          0.387         -0.276          0.456         -0.060          0.897         -0.096          0.294          0.352          0.575          0.687          0.331          0.505          0.364          0.190          0.227          0.411          0.280          0.218          0.232          0.222          0.174          8.743          0.201          0.154          0.123          0.134          0.186          8.200         -0.039          7.396          7.232          6.738          6.294          0.034          0.049         -0.148         -0.159          8.248         -9.319          7.780          8.760         -0.226         -0.244         -0.151         -0.420         -0.358         -0.289         -0.317         -0.375         -0.509         -0.397         -0.541         -0.699         -0.514         -0.623         -0.418         -1.653         -1.014         -0.674         -3.665         -1.259         -0.618          0.072         -7.834         -0.536          0.406          1.386         -0.545          0.168         -0.863         -0.488         -1.027          0.307          1.207         -1.276         -1.788         -3.484        -30.092          0.029        -10.041          1.389          0.460          0.428         -5.035          0.413          0.632          1.635         -0.229          0.689          0.548          0.862          0.452          0.477          0.588          0.278          0.336          0.356          0.214          0.247          0.227          0.168          0.142         -0.002         -8.520          0.107          9.148          7.766          0.085          0.129          0.093          7.532         -7.981       -194.209
      16000.000         13.015         -0.005          0.006         -0.059          0.038          0.249          0.527          0.142          0.178          0.285          0.312          0.216          0.203          0.235          0.145          8.911         -8.226          7.394         -0.061         -0.068          0.209         -0.234         -0.179         -0.359         -0.418         -0.259         -0.296         -0.350         -0.380         -0.470         -0.453         -0.483         -0.355         -0.582         -0.936         -0.479         -0.286         -0.422         -0.530         -0.058         -0.235         -0.827         -1.154         -0.875         -0.150         -4.355         -1.573         -0.911          0.433       -104.522         -0.111          1.253         -0.190         -0.417         -0.100          0.296         -0.510         -0.188         -0.924         22.072         -0.532         -0.939         -0.992        -22.231         -0.377         -2.495         -1.293          0.012          0.487        -71.730         -0.064          0.577          1.367          2.000          0.224          0.518          0.757          0.635          0.711          0.995          0.464          0.379          0.275          0.282          0.344          0.233         -9.796         10.455          0.143          0.217          0.173          0.178          0.163         -0.118         -0.054         -0.033         -0.167         -0.068         -0.072          0.104         -0.035         -0.108         -0.047         -0.004         -0.005         -0.189         -0.215          7.758          9.320         -0.221         -0.268         -0.267         -0.260         -0.316         -0.319         -0.268         -0.314         -0.455         -0.344         -0.346         -0.487         -0.565         -0.213         -0.176         -0.007          0.193          0.306          0.560          0.091          0.213          0.553          0.180          0.024         -0.936         -0.475          0.405        -27.581         -0.834          0.733          1.452          1.563          3.440         -7.576          1.074         -0.479         -0.489        -18.335          0.270          0.183         -0.398          0.378          0.360          0.924          0.071          0.327          0.190          0.596          0.291          0.253          0.493          0.494          0.305          0.305          0.461          0.323          0.203          0.242          0.212          0.189          8.905          0.228          0.182          0.111          0.140          0.136          8.920          0.061          7.533          7.437          6.421          7.089          0.032          0.058         -0.160         -0.159          9.209         -9.473          8.021          8.932         -0.224         -0.263         -0.312         -0.258         -0.372         -0.329         -0.379         -0.432         -0.549         -0.458         -0.550         -0.815         -0.838         -0.807         -0.613         -1.791         -1.034         -1.006         -4.423         -1.595         -0.401          1.206         -9.851         -0.874          0.693          2.852         -0.541          0.211         -0.477         -1.131         -0.522          0.486          1.618         -0.373         -3.028         -5.156        -33.381         -0.922        -11.853          1.801          0.298          0.936         -1.811          2.160          0.803          1.698         -0.623          0.725          0.850          1.026          0.509          0.586          0.774          0.346          0.366          0.377          0.261          0.302          0.333          0.227          0.274          0.022         -9.256          0.155          9.222          7.958          0.118          0.098          0.073          7.463         -7.991       -188.523
      20000.000         13.600         -0.003          0.004          0.010          0.097          0.336          0.469          0.173          0.176          0.280          0.053          0.171          0.176          0.229          0.167          8.999         -8.152          7.505         -0.046         -0.086          0.254         -0.230         -0.193         -0.378         -0.395         -0.185         -0.321         -0.364         -0.354         -0.509         -0.477         -0.321         -0.303         -0.500         -1.001         -0.439         -0.501         -0.589         -0.413         -0.068         -0.446         -0.799         -1.029         -0.779          0.123         -4.594         -2.028         -0.126         -0.506        -99.760          0.080          2.127         -2.346         -2.259         -0.300          0.556         -1.187         -0.134         -0.767         23.649         -0.665         -0.311         -1.005        -22.477         -0.303         -2.240         -0.636         -0.447          0.508        -73.579          0.051          0.526          1.176          1.213          0.517          0.491          0.837          0.537          0.707          1.029          0.451          0.539          0.286          0.305          0.339          0.229         -9.596          9.851          0.124          0.163          0.164          0.166          0.152         -0.022         -0.097         -0.032         -0.113         -0.072          0.027          0.066         -0.072         -0.102         -0.090         -0.065         -0.030         -0.193         -0.117          7.507          9.147         -0.225         -0.231         -0.254         -0.205         -0.334         -0.282         -0.269         -0.366         -0.499         -0.365         -0.301         -0.548         -0.598         -0.159          0.023         -0.055          0.062          0.316          0.387         -0.133          0.151          0.505          0.123         -0.532         -0.723         -0.349          0.806        -28.460         -0.508          0.679          2.479          3.166         -0.514         -7.565          0.970         -0.315         -0.468        -18.492          0.336          0.277         -0.155          0.484          0.124          0.851          0.144          0.399          0.429          0.448          0.710          0.282          0.509          0.369          0.257          0.294          0.280          0.261          0.195          0.225          0.273          0.163          8.823          0.212          0.174          0.126          0.134          0.173          8.887          0.023          7.646          7.505          6.456          6.216          0.087          0.063         -0.133         -0.143          7.980         -9.082          7.681          8.470         -0.219         -0.242         -0.176         -0.292         -0.306         -0.305         -0.341         -0.411         -0.507         -0.434         -0.523         -0.727         -0.789         -0.566         -0.419         -1.451         -0.787         -0.546         -0.876         -0.676         -0.430          0.453         -5.671         -0.732          0.586          2.920         -0.585          0.893         -0.778         -0.797         -0.076          0.875          1.638         -0.712         -2.018         -3.167        -32.946         -0.279         -9.162          1.179         -0.076          0.723         -3.784          2.304          0.703          1.707         -2.114          0.674          0.586          1.101          0.478          0.518          0.681          0.329          0.338          0.366          0.253          0.215          0.259          0.183          0.292          0.043         -8.489          0.117          9.159          7.772          0.096          0.121          0.099          7.470         -7.804       -178.511
      24000.000         12.801          0.106          0.018         -0.080          0.083          0.227          0.512          0.103          0.110          0.231          0.350          0.075          0.187          0.207          0.187          8.478         -8.250          7.367         -0.044         -0.109          0.151         -0.217         -0.151         -0.331         -0.385         -0.278         -0.287         -0.318         -0.311         -0.484         -0.441         -0.426         -0.280         -0.518         -0.994         -0.442         -0.296         -0.544         -0.489         -0.016         -0.313         -1.046         -1.459         -1.056         -0.237         -5.594         -1.246         -0.860          0.970       -108.960         -0.307          2.102         -3.536         -1.558         -0.214          0.432         -0.309         -0.385         -0.748         23.693         -0.283          0.007         -1.081        -21.726         -0.417         -2.479         -0.854         -0.053          0.447        -71.216          0.438          0.764          1.414          1.910          0.585          0.484          0.882          0.610          0.710          0.948          0.439          0.431          0.288          0.305          0.346          0.215         -9.655          9.681          0.124          0.161          0.155          0.163          0.138         -0.148         -0.055         -0.053         -0.156          0.037         -0.116          0.061         -0.038         -0.058         -0.107          0.012         -0.033         -0.212         -0.226          7.457          9.096         -0.205         -0.233         -0.251         -0.278         -0.329         -0.339         -0.280         -0.315         -0.532         -0.316         -0.282         -0.493         -0.496         -0.172         -0.214          0.019          0.053          0.327          0.257          0.126          0.259          0.561          0.220         -0.147         -0.786         -1.469          0.540        -28.352         -0.881          0.756          2.408          2.493         -5.715         -6.899          0.801         -0.699         -0.062        -18.150          0.419          0.310         -0.046          0.555          0.115          0.808          0.045          0.407          0.554          0.449          0.786          0.312          0.507          0.472          0.240          0.282          0.308          0.223          0.178          0.219          0.184          0.160          8.666          0.197          0.187          0.111          0.126          0.182          8.707         -0.047          7.565          7.774          6.560          6.337         -0.072          0.086         -0.097         -0.116          8.067         -8.767          7.613          8.420         -0.213         -0.236         -0.282         -0.419         -0.345         -0.304         -0.349         -0.439         -0.531         -0.501         -0.534         -0.702         -0.772         -0.585         -0.487         -1.698         -0.916         -0.543         -1.459         -0.528         -0.529          0.638         -4.538         -0.249          0.438          2.619         -0.685          0.640         -0.828         -1.933         -0.525          1.027          1.490         -0.881         -2.512         -4.100        -30.982         -0.245         -8.196          2.341         -0.086          0.487         -6.226          1.617          0.907          1.672          0.580          0.617          0.726          0.895          0.461          0.472          0.674          0.302          0.317          0.359          0.241          0.256          0.252         -0.012          0.187         -0.005         -8.887          0.113          8.056          7.484          0.133          0.169          0.090          7.616         -7.564       -192.826