# Time	LEU-41	ALA-42	ILE-43	VAL-44	PHE-45	GLY-46	ASN-47	GLY-48	LEU-49	VAL-50	CYS-51	MET-52	ALA-53	VAL-54	LEU-55	LYS-56	GLU-57	ARG-58	ALA-59	LEU-60	GLN-61	THR-62	THR-63	THR-64	ASN-65	TYR-66	LEU-67	VAL-68	VAL-69	SER-70	LEU-71	ALA-72	VAL-73	ALA-74	ASH-75	LEU-76	LEU-77	VAL-78	ALA-79	THR-80	LEU-81	VAL-82	MET-83	PRO-84	TRP-85	VAL-86	VAL-87	TYR-88	LEU-89	GLU-90	VAL-91	THR-92	GLY-93	GLY-94	VAL-95	TRP-96	ASN-97	PHE-98	SER-99	ARG-100	ILE-101	CYS-102	CYX-103	ASP-104	VAL-105	PHE-106	VAL-107	THR-108	LEU-109	ASP-110	VAL-111	MET-112	MET-113	CYS-114	THR-115	ALA-116	SER-117	ILE-118	TRP-119	ASN-120	LEU-121	CYS-122	ALA-123	ILE-124	SER-125	ILE-126	ASP-127	ARG-128	TYR-129	THR-130	ALA-131	VAL-132	VAL-133	MET-134	PRO-135	VAL-136	HID-137	TYR-138	GLN-139	HID-140	GLY-141	THR-142	GLY-143	GLN-144	SER-145	SER-146	CYS-147	ARG-148	ARG-149	VAL-150	ALA-151	LEU-152	MET-153	ILE-154	THR-155	ALA-156	VAL-157	TRP-158	VAL-159	LEU-160	ALA-161	PHE-162	ALA-163	VAL-164	SER-165	CYS-166	PRO-167	LEU-168	LEU-169	PHE-170	GLY-171	PHE-172	ASN-173	THR-174	THR-175	GLY-176	ASP-177	PRO-178	THR-179	VAL-180	CYX-181	SER-182	ILE-183	SER-184	ASN-185	PRO-186	ASP-187	PHE-188	VAL-189	ILE-190	TYR-191	SER-192	SER-193	VAL-194	VAL-195	SER-196	PHE-197	TYR-198	LEU-199	PRO-200	PHE-201	GLY-202	VAL-203	THR-204	VAL-205	LEU-206	VAL-207	TYR-208	ALA-209	ARG-210	ILE-211	TYR-212	VAL-213	VAL-214	LEU-215	LYS-216	GLN-217	ARG-218	ARG-219	ARG-220	LYS-221	GLY-319	VAL-320	PRO-321	LEU-322	ARG-323	GLU-324	LYS-325	LYS-326	ALA-327	THR-328	GLN-329	MET-330	VAL-331	ALA-332	ILE-333	VAL-334	LEU-335	GLY-336	ALA-337	PHE-338	ILE-339	VAL-340	CYS-341	TRP-342	LEU-343	PRO-344	PHE-345	PHE-346	LEU-347	THR-348	HIE-349	VAL-350	LEU-351	ASN-352	THR-353	HID-354	CYX-355	GLN-356	THR-357	CYX-358	HID-359	VAL-360	SER-361	PRO-362	GLU-363	LEU-364	TYR-365	SER-366	ALA-367	THR-368	THR-369	TRP-370	LEU-371	GLY-372	TYR-373	VAL-374	ASN-375	SER-376	ALA-377	LEU-378	ASN-379	PRO-380	VAL-381	ILE-382	TYR-383	THR-384	THR-385	PHE-386	ASN-387	ILE-388	GLU-389	PHE-390	ARG-391	LYS-392	ALA-393	PHE-394	LEU-395	LYS-396	ILE-397	DPN-14602	
          0.000         -0.673          0.044          0.055          0.066          0.023         -0.064         -0.109         -0.040         -0.037         -0.059         -0.081         -0.020         -0.030         -0.031         -0.018         -0.268          0.288         -0.131          0.005          0.015         -0.034          0.021          0.032          0.023          0.083          0.054          0.058          0.074          0.081          0.101          0.126          0.092          0.102          0.149          0.318          0.149          0.108          0.185          0.156          0.104          0.135          0.008          0.192          0.296          0.163          0.829          0.324          0.170         -0.300         43.314         -0.036         -0.226         -0.085         -0.138          0.075          0.093         -0.048         -0.063          0.070         -1.197          0.083          0.087          0.138          1.526          0.208          0.765          0.470         -0.004         -0.149         22.276          0.097         -0.072         -0.303         -0.492         -0.010         -0.130         -0.226         -0.140         -0.135         -0.235         -0.113         -0.128         -0.061         -0.070         -0.069         -0.051          0.545         -0.661         -0.026         -0.023         -0.027         -0.022         -0.017          0.005          0.009          0.004          0.022         -0.009          0.016         -0.009         -0.006         -0.001          0.000         -0.002          0.004          0.021          0.029         -0.086         -0.392          0.040          0.048          0.051          0.045          0.076          0.067          0.075          0.040          0.092          0.054          0.032          0.050          0.060          0.006         -0.030         -0.056         -0.081         -0.074         -0.148         -0.062         -0.040         -0.075         -0.067          0.009          0.031          0.006         -0.031          0.741          0.065         -0.009          0.107          0.271          1.517         -0.186          0.031          0.064          0.062          1.124          0.040          0.038          0.115          0.022          0.061          0.030          0.039         -0.020          0.021         -0.086         -0.088         -0.047         -0.108         -0.110         -0.056         -0.064         -0.081         -0.057         -0.040         -0.051         -0.041         -0.034         -0.244         -0.042         -0.023         -0.014         -0.023         -0.023         -0.091         -0.009         -0.154         -0.043         -0.016         -0.025         -0.005         -0.009          0.023          0.022         -0.245          0.452         -0.161         -0.297          0.050          0.055          0.065          0.056          0.085          0.084          0.102          0.117          0.150          0.142          0.167          0.188          0.147          0.151          0.246          0.405          0.201          0.219          0.647          0.222         -0.028         -0.307          1.176         -0.059         -0.334         -0.377         -0.340         -0.122          0.045          0.041          0.171          0.057         -0.041         -0.347          0.701          1.731          5.883          0.505          2.909         -1.535          0.045         -0.539          0.755         -1.150         -0.295         -0.676          0.222         -0.246         -0.217         -0.347         -0.171         -0.178         -0.260         -0.097         -0.087         -0.104         -0.069         -0.045         -0.075         -0.046         -0.051         -0.003          0.307         -0.022         -0.344         -0.155         -0.022         -0.015         -0.015         -0.113          0.107        136.113
       4000.000         -0.715          0.024          0.032          0.036          0.007         -0.081         -0.139         -0.036         -0.030         -0.067         -0.010         -0.034         -0.038         -0.042         -0.021         -0.238          0.308         -0.182          0.005          0.022         -0.037          0.025          0.032          0.066          0.085          0.051          0.083          0.089          0.099          0.133          0.121          0.106          0.125          0.146          0.247          0.183          0.127          0.200          0.172          0.026          0.117          0.139          0.392          0.413          0.265          0.784          0.478          0.222         -0.609         42.743         -0.112         -0.349         -0.212         -0.277         -0.033         -0.010         -0.200         -0.005          0.075         -0.752          0.090          0.121          0.177          1.300          0.242          1.218          0.540          0.045         -0.148         26.189          0.058         -0.113         -0.351         -0.262         -0.073         -0.118         -0.211         -0.156         -0.112         -0.230         -0.133         -0.096         -0.070         -0.073         -0.076         -0.053          0.593         -0.725         -0.034         -0.035         -0.031         -0.023         -0.021         -0.007          0.009          0.006          0.004          0.010          0.010         -0.007          0.006          0.019          0.016          0.024          0.007          0.042          0.026         -0.148         -0.465          0.046          0.057          0.057          0.035          0.078          0.066          0.068          0.067          0.086          0.053          0.014          0.046          0.056         -0.003         -0.065         -0.138         -0.061         -0.083         -0.092         -0.062         -0.040         -0.058         -0.054          0.050          0.053          0.027         -0.009          0.194          0.012          0.071          0.160          0.466          6.495          0.993          0.145          0.165          0.135          1.083          0.069         -0.015          0.086          0.085          0.030          0.038          0.078         -0.002          0.057         -0.080         -0.144         -0.044         -0.093         -0.134         -0.079         -0.077         -0.115         -0.072         -0.037         -0.058         -0.033         -0.027         -0.278         -0.048         -0.029         -0.018         -0.023         -0.025         -0.105         -0.014         -0.173         -0.080         -0.184         -0.029          0.003         -0.011          0.021          0.023         -0.255          0.511         -0.317         -0.309          0.050          0.058          0.049          0.077          0.106          0.109          0.131          0.150          0.179          0.181          0.216          0.250          0.196          0.243          0.243          0.469          0.250          0.329          0.738          0.228         -0.008         -0.323          2.142         -0.125         -0.446         -0.426         -0.396         -0.178          0.036          0.060          0.062         -0.113         -0.165         -0.439          0.872          1.514          6.089          0.387          3.560         -1.015          0.095         -0.354          1.657         -0.493         -0.409         -0.693         -0.472         -0.335         -0.228         -0.371         -0.176         -0.227         -0.129         -0.101         -0.091         -0.100         -0.053         -0.030         -0.072         -0.041         -0.044          0.001          0.348         -0.028         -0.406         -0.205         -0.022         -0.020         -0.017         -0.073          0.123        148.386
       8000.000         -0.662          0.027          0.078          0.048          0.016         -0.053         -0.105         -0.009         -0.027         -0.057         -0.007         -0.009         -0.028         -0.035         -0.016         -0.207          0.248         -0.060          0.004          0.019         -0.033          0.034          0.037          0.063          0.084          0.049          0.075          0.080          0.092          0.145          0.121          0.131          0.138          0.171          0.244          0.148          0.153          0.222          0.187          0.045          0.143         -0.057          0.508          0.356          0.205          0.826          0.429          0.195         -0.264         44.617         -0.022         -0.329         -0.012         -0.219          0.071         -0.010         -0.084          0.015          0.133         -1.619          0.119          0.091          0.185          2.204          0.232          0.930          0.681         -0.020         -0.184         30.613         -0.131         -0.158         -0.407         -0.475         -0.210         -0.154         -0.165         -0.119         -0.143         -0.250         -0.105         -0.097         -0.061         -0.078         -0.074         -0.047          0.526         -0.626         -0.026         -0.035         -0.026         -0.022         -0.018          0.010          0.013          0.008          0.018          0.005          0.028          0.002          0.008          0.019          0.012          0.005         -0.000          0.038          0.023         -0.074         -0.410          0.047          0.055          0.050          0.056          0.087          0.074          0.077          0.088          0.117          0.067          0.048          0.080          0.096          0.007         -0.059         -0.059         -0.039         -0.082         -0.123         -0.090         -0.058         -0.092         -0.054          0.084          0.018         -0.106         -0.003          1.112          0.064          0.113          0.072          0.075          4.975          0.371          0.087          0.045          0.068          1.209          0.026          0.041          0.058         -0.012         -0.048          0.002          0.022         -0.022         -0.029         -0.080         -0.120         -0.054         -0.102         -0.093         -0.072         -0.067         -0.078         -0.059         -0.039         -0.049         -0.052         -0.036         -0.219         -0.036         -0.023         -0.015         -0.020         -0.017         -0.068         -0.005         -0.173         -0.042         -0.045         -0.021          0.005         -0.003          0.014          0.021         -0.224          0.411         -0.135         -0.326          0.043          0.049          0.066          0.077          0.083          0.083          0.084          0.092          0.139          0.127          0.136          0.172          0.124          0.170          0.171          0.348          0.178          0.153          0.846          0.179          0.020         -0.150          2.518          0.017         -0.211         -0.270         -0.321         -0.064          0.029         -0.002          0.000         -0.098         -0.195         -0.123          0.560          1.333          5.971          0.343          3.253         -1.357          0.011         -0.314          0.063         -0.388         -0.231         -0.500          0.600         -0.189         -0.164         -0.316         -0.125         -0.170         -0.178         -0.072         -0.060         -0.088         -0.044         -0.057         -0.060         -0.027         -0.052         -0.001          0.282         -0.020         -0.347         -0.138         -0.014         -0.014         -0.016         -0.053          0.115        141.635
      12000.000         -0.575          0.023          0.047          0.051          0.004         -0.063         -0.039         -0.033         -0.027         -0.050         -0.001         -0.019         -0.027         -0.029         -0.022         -0.211          0.248         -0.133          0.006          0.017         -0.036          0.025          0.027          0.042          0.075          0.046          0.070          0.063          0.082          0.098          0.107          0.107          0.104          0.139          0.213          0.141          0.119          0.200          0.154          0.023          0.161          0.037          0.403          0.373          0.305          0.940          0.513          0.354         -0.434         52.108          0.070         -0.294          0.482         -0.039         -0.010         -0.001         -0.365         -0.014          0.146         -2.408          0.139          0.144          0.170          2.633          0.105          0.466          0.263         -0.073         -0.166         19.163          0.116         -0.085         -0.163         -0.457         -0.147         -0.100         -0.185         -0.131         -0.143         -0.220         -0.093         -0.101         -0.064         -0.065         -0.063         -0.045          0.499         -0.619         -0.022         -0.035         -0.025         -0.020         -0.017          0.004          0.002          0.005          0.004          0.004          0.011         -0.001          0.007          0.009          0.013          0.018          0.010          0.022          0.022         -0.085         -0.362          0.045          0.055          0.067          0.058          0.080          0.068          0.069          0.075          0.120          0.069          0.049          0.069          0.067          0.009         -0.018         -0.026         -0.060         -0.082         -0.139         -0.086         -0.062         -0.117         -0.076         -0.093          0.043         -0.022         -0.044          1.758          0.113          0.044          0.031          0.070          5.107          1.127          0.054          0.008          0.044          1.651         -0.012         -0.000          0.064         -0.030         -0.011         -0.055          0.028         -0.036         -0.081         -0.104         -0.135         -0.066         -0.113         -0.091         -0.047         -0.060         -0.083         -0.053         -0.035         -0.050         -0.053         -0.029         -0.214         -0.033         -0.020         -0.013         -0.017         -0.018         -0.089         -0.000         -0.123         -0.036         -0.013         -0.016         -0.002         -0.007          0.018          0.022         -0.257          0.428         -0.138         -0.259          0.043          0.048          0.067          0.078          0.079          0.073          0.086          0.090          0.126          0.111          0.149          0.159          0.125          0.183          0.104          0.326          0.187          0.111          0.301          0.109          0.036         -0.053          2.024         -0.048         -0.214         -0.165         -0.280         -0.111          0.060         -0.158          0.239         -0.055         -0.148         -0.054          0.583          1.497          4.698          0.193          2.662         -1.765         -0.117         -0.283          1.920         -0.108         -0.217         -0.461          0.444         -0.233         -0.189         -0.237         -0.125         -0.131         -0.131         -0.057         -0.061         -0.084         -0.051         -0.051         -0.053         -0.025         -0.035         -0.004          0.290         -0.017         -0.321         -0.151         -0.012         -0.018         -0.015         -0.092          0.106        143.923
      16000.000         -0.747          0.022          0.053          0.064          0.016         -0.059         -0.117         -0.036         -0.036         -0.066         -0.081         -0.021         -0.036         -0.041         -0.032         -0.228          0.291         -0.076          0.014          0.016         -0.031          0.045          0.032          0.069          0.077          0.049          0.076          0.086          0.106          0.141          0.122          0.139          0.118          0.193          0.234          0.136          0.075          0.126          0.205          0.018          0.094         -0.064          0.245          0.304          0.103          0.576          0.332          0.369         -0.197         46.312         -0.059         -0.376         -0.570         -0.186          0.069         -0.000         -0.231         -0.015          0.157         -1.813          0.132          0.208          0.170          2.406          0.295          1.152          0.678         -0.039         -0.210         31.966          0.008         -0.199         -0.468         -0.612         -0.140         -0.140         -0.184         -0.139         -0.145         -0.251         -0.108         -0.103         -0.069         -0.067         -0.077         -0.049          0.573         -0.687         -0.029         -0.047         -0.027         -0.021         -0.019          0.011          0.008          0.007          0.014          0.005          0.013         -0.003          0.010          0.017          0.002         -0.008          0.004          0.035          0.029         -0.110         -0.441          0.047          0.065          0.068          0.056          0.086          0.079          0.090          0.073          0.118          0.090          0.058          0.093          0.102          0.022         -0.036         -0.047         -0.074         -0.091         -0.164         -0.088         -0.072         -0.117         -0.067         -0.043          0.092          0.059         -0.030          1.337          0.094          0.071         -0.020          0.078          2.462          0.857          0.063          0.066          0.067          1.770          0.001         -0.030          0.063         -0.018         -0.031         -0.010          0.002         -0.035         -0.066         -0.107         -0.084         -0.062         -0.116         -0.120         -0.088         -0.080         -0.102         -0.072         -0.041         -0.058         -0.062         -0.035         -0.232         -0.040         -0.027         -0.015         -0.023         -0.022         -0.111          0.002         -0.141         -0.043         -0.010         -0.044         -0.001         -0.008          0.023          0.022         -0.487          0.509         -0.169         -0.274          0.046          0.053          0.069          0.057          0.087          0.089          0.104          0.106          0.142          0.137          0.145          0.176          0.219          0.180          0.150          0.295          0.242          0.263          1.102          0.146          0.050         -0.138          2.352          0.042         -0.259         -0.689         -0.156         -0.150          0.009          0.064          0.209         -0.064         -0.324         -0.243          0.671          1.815          5.991          0.250          2.543         -2.378         -0.127         -0.356          0.725         -0.780         -0.204         -0.407          0.215         -0.202         -0.248         -0.275         -0.148         -0.165         -0.200         -0.088         -0.079         -0.096         -0.061         -0.068         -0.077         -0.041         -0.058         -0.007          0.467         -0.026         -0.323         -0.190         -0.019         -0.015         -0.017         -0.121          0.176        152.090
      20000.000         -0.693          0.037          0.049          0.035          0.007         -0.072         -0.095         -0.037         -0.031         -0.053         -0.000         -0.018         -0.025         -0.033         -0.021         -0.196          0.235         -0.078          0.007          0.015         -0.034          0.036          0.030          0.060          0.066          0.049          0.064          0.077          0.081          0.122          0.096          0.079          0.093          0.168          0.178          0.118          0.135          0.168          0.146          0.041          0.156         -0.023          0.288          0.326          0.103          0.805          0.557          0.216         -0.134         51.441         -0.075         -0.451         -0.347         -0.249          0.054         -0.006          0.051         -0.021          0.146         -2.274          0.132          0.112          0.209          2.587          0.190          0.688          0.149         -0.009         -0.175         19.861         -0.045         -0.194         -0.317         -0.330         -0.132         -0.102         -0.154         -0.094         -0.113         -0.196         -0.084         -0.109         -0.057         -0.061         -0.061         -0.043          0.434         -0.462         -0.029         -0.030         -0.023         -0.016         -0.014          0.002          0.012          0.005          0.002          0.005          0.011         -0.005          0.012          0.012          0.010          0.005          0.008          0.028          0.008         -0.067         -0.329          0.040          0.048          0.056          0.038          0.075          0.055          0.068          0.069          0.102          0.089          0.044          0.088          0.095          0.028         -0.022         -0.008         -0.026         -0.081         -0.071         -0.024         -0.069         -0.105         -0.032          0.063          0.090         -0.001         -0.029          1.856          0.045          0.044          0.071          0.227          2.069          1.516          0.039          0.002          0.070          1.551         -0.039         -0.037          0.021         -0.050         -0.058         -0.015         -0.011         -0.038         -0.075         -0.085         -0.120         -0.050         -0.096         -0.077         -0.058         -0.067         -0.055         -0.050         -0.032         -0.041         -0.057         -0.026         -0.190         -0.030         -0.021         -0.013         -0.015         -0.015         -0.110          0.001         -0.111         -0.050         -0.015         -0.016         -0.007         -0.005          0.013          0.017         -0.168          0.342         -0.095         -0.212          0.037          0.047          0.056          0.051          0.063          0.071          0.083          0.088          0.113          0.119          0.136          0.160          0.187          0.157          0.112          0.138          0.124          0.104          0.682          0.077          0.050         -0.041          1.714          0.010         -0.218         -0.630         -0.221         -0.235         -0.002         -0.038          0.133         -0.022         -0.209         -0.192          0.501          1.057          4.021          0.257          3.297         -2.077          0.109         -0.257          1.109         -0.945         -0.217         -0.447          0.835         -0.194         -0.202         -0.273         -0.126         -0.130         -0.144         -0.070         -0.061         -0.077         -0.047         -0.046         -0.052         -0.030         -0.049         -0.002          0.239         -0.017         -0.283         -0.134         -0.015         -0.016         -0.016         -0.117          0.140        127.438
      24000.000         -0.556          0.008          0.039          0.064          0.005         -0.044         -0.112         -0.024         -0.019         -0.043         -0.066         -0.015         -0.026         -0.029         -0.019         -0.187          0.256         -0.061          0.008          0.018         -0.019          0.035          0.023          0.049          0.063          0.049          0.060          0.065          0.069          0.119          0.101          0.121          0.113          0.168          0.176          0.120          0.074          0.177          0.174         -0.008          0.149          0.019          0.406          0.425          0.290          1.136          0.404          0.347         -0.497         54.538         -0.059         -0.578          0.209         -0.241          0.102          0.040         -0.226          0.038          0.150         -1.965          0.082          0.037          0.171          2.261          0.162          0.621          0.345         -0.117         -0.186         24.854         -0.164         -0.248         -0.368         -0.345         -0.136         -0.107         -0.160         -0.107         -0.103         -0.183         -0.088         -0.077         -0.056         -0.056         -0.062         -0.038          0.463         -0.427         -0.027         -0.027         -0.018         -0.016         -0.013          0.007          0.005          0.006          0.006         -0.013          0.010         -0.000          0.008          0.006          0.011          0.000          0.005          0.031          0.022         -0.071         -0.337          0.038          0.045          0.054          0.050          0.073          0.062          0.067          0.056          0.100          0.068          0.032          0.074          0.067          0.019         -0.011         -0.086         -0.027         -0.065         -0.044         -0.081         -0.055         -0.107         -0.046          0.002          0.067         -0.039         -0.003          1.624          0.110          0.093         -0.132         -0.084          4.917          1.364          0.037          0.023          0.025          1.336          0.014         -0.005          0.023         -0.009         -0.061          0.041          0.020         -0.022         -0.072         -0.063         -0.126         -0.045         -0.094         -0.107         -0.056         -0.061         -0.057         -0.036         -0.028         -0.041         -0.037         -0.024         -0.187         -0.031         -0.020         -0.012         -0.016         -0.018         -0.084          0.002         -0.106         -0.064         -0.023         -0.020          0.004         -0.009          0.009          0.013         -0.203          0.300         -0.104         -0.153          0.038          0.039          0.049          0.069          0.073          0.068          0.086          0.100          0.126          0.135          0.158          0.166          0.186          0.181          0.167          0.299          0.161          0.114          0.305          0.073          0.008         -0.143          1.609         -0.075         -0.216         -0.663          0.043         -0.176          0.032          0.026          0.125         -0.066         -0.155         -0.128          0.704          1.428          4.767          0.316          2.723         -2.176          0.033         -0.349          1.724         -0.739         -0.253         -0.430          0.143         -0.194         -0.250         -0.210         -0.119         -0.120         -0.142         -0.064         -0.054         -0.075         -0.047         -0.044         -0.045          0.003         -0.037          0.003          0.307         -0.018         -0.110         -0.092         -0.017         -0.020         -0.013         -0.114          0.083        147.138