# Time	LEU-41	ALA-42	ILE-43	VAL-44	PHE-45	GLY-46	ASN-47	GLY-48	LEU-49	VAL-50	CYS-51	MET-52	ALA-53	VAL-54	LEU-55	LYS-56	GLU-57	ARG-58	ALA-59	LEU-60	GLN-61	THR-62	THR-63	THR-64	ASN-65	TYR-66	LEU-67	VAL-68	VAL-69	SER-70	LEU-71	ALA-72	VAL-73	ALA-74	ASH-75	LEU-76	LEU-77	VAL-78	ALA-79	THR-80	LEU-81	VAL-82	MET-83	PRO-84	TRP-85	VAL-86	VAL-87	TYR-88	LEU-89	GLU-90	VAL-91	THR-92	GLY-93	GLY-94	VAL-95	TRP-96	ASN-97	PHE-98	SER-99	ARG-100	ILE-101	CYS-102	CYX-103	ASP-104	VAL-105	PHE-106	VAL-107	THR-108	LEU-109	ASP-110	VAL-111	MET-112	MET-113	CYS-114	THR-115	ALA-116	SER-117	ILE-118	TRP-119	ASN-120	LEU-121	CYS-122	ALA-123	ILE-124	SER-125	ILE-126	ASP-127	ARG-128	TYR-129	THR-130	ALA-131	VAL-132	VAL-133	MET-134	PRO-135	VAL-136	HID-137	TYR-138	GLN-139	HID-140	GLY-141	THR-142	GLY-143	GLN-144	SER-145	SER-146	CYS-147	ARG-148	ARG-149	VAL-150	ALA-151	LEU-152	MET-153	ILE-154	THR-155	ALA-156	VAL-157	TRP-158	VAL-159	LEU-160	ALA-161	PHE-162	ALA-163	VAL-164	SER-165	CYS-166	PRO-167	LEU-168	LEU-169	PHE-170	GLY-171	PHE-172	ASN-173	THR-174	THR-175	GLY-176	ASP-177	PRO-178	THR-179	VAL-180	CYX-181	SER-182	ILE-183	SER-184	ASN-185	PRO-186	ASP-187	PHE-188	VAL-189	ILE-190	TYR-191	SER-192	SER-193	VAL-194	VAL-195	SER-196	PHE-197	TYR-198	LEU-199	PRO-200	PHE-201	GLY-202	VAL-203	THR-204	VAL-205	LEU-206	VAL-207	TYR-208	ALA-209	ARG-210	ILE-211	TYR-212	VAL-213	VAL-214	LEU-215	LYS-216	GLN-217	ARG-218	ARG-219	ARG-220	LYS-221	GLY-319	VAL-320	PRO-321	LEU-322	ARG-323	GLU-324	LYS-325	LYS-326	ALA-327	THR-328	GLN-329	MET-330	VAL-331	ALA-332	ILE-333	VAL-334	LEU-335	GLY-336	ALA-337	PHE-338	ILE-339	VAL-340	CYS-341	TRP-342	LEU-343	PRO-344	PHE-345	PHE-346	LEU-347	THR-348	HIE-349	VAL-350	LEU-351	ASN-352	THR-353	HID-354	CYX-355	GLN-356	THR-357	CYX-358	HID-359	VAL-360	SER-361	PRO-362	GLU-363	LEU-364	TYR-365	SER-366	ALA-367	THR-368	THR-369	TRP-370	LEU-371	GLY-372	TYR-373	VAL-374	ASN-375	SER-376	ALA-377	LEU-378	ASN-379	PRO-380	VAL-381	ILE-382	TYR-383	THR-384	THR-385	PHE-386	ASN-387	ILE-388	GLU-389	PHE-390	ARG-391	LYS-392	ALA-393	PHE-394	LEU-395	LYS-396	ILE-397	DPN-14602	
          0.000         -1.215          0.064          0.058          0.082          0.012         -0.119         -0.124         -0.049         -0.042         -0.115         -0.144         -0.055         -0.063         -0.067         -0.026         -0.390          0.498         -0.118          0.002          0.029         -0.016          0.072          0.060          0.046          0.156          0.093          0.125          0.150          0.130          0.243          0.131          0.157          0.188          0.280          0.273          0.194          0.122          0.207          0.266          0.062         -0.161         -0.464          0.253         -0.023         -0.409         -0.513         -0.169         -0.190         -0.242          3.305         -0.100         -0.163         -0.047         -0.018          0.047         -0.040          0.075          0.092          0.218         -2.055          0.208          0.236          0.301          3.195          0.357          0.897          1.059          0.171         -0.007         39.199          1.035          0.008         -0.772         -0.891         -0.291         -0.245         -0.519         -0.284         -0.287         -0.410         -0.198         -0.235         -0.118         -0.124         -0.106         -0.098          1.017         -1.031         -0.049         -0.064         -0.035         -0.029         -0.023         -0.000         -0.007          0.002         -0.026         -0.019          0.027         -0.002         -0.012         -0.017          0.026          0.015          0.033          0.062          0.063         -0.173         -0.275          0.093          0.138          0.153          0.079          0.156          0.114          0.162          0.161          0.293          0.141          0.083          0.142          0.203          0.023          0.064         -0.127         -0.108         -0.109         -0.200         -0.112         -0.150         -0.103         -0.092         -0.539          0.033         -0.030         -0.059          1.273          0.127          0.083          0.046          0.096         -0.170         -0.098          0.592          0.243          0.089          1.973          0.869          0.268          0.132         -0.014          2.531          0.412         -0.008         -0.022          1.432          0.030         -0.047         -0.105         -0.184         -0.170         -0.130         -0.128         -0.127         -0.094         -0.066         -0.088         -0.063         -0.049         -0.394         -0.055         -0.011         -0.019         -0.027         -0.030         -0.139          0.020         -0.084         -0.265         -0.033         -0.097         -0.007         -0.012          0.031          0.031         -0.232          0.559         -0.233         -0.333          0.066          0.098          0.107          0.108          0.132          0.150          0.182          0.162          0.205          0.207          0.241          0.265          0.231          0.182          0.117          0.674          0.059         -0.167          0.665          0.327         -0.138         -0.259          2.925         -0.127         -0.160         -0.330         -0.146         -0.043         -0.005         -0.028          0.053         -0.056         -0.082         -0.133          0.338          0.274          1.971          0.299          0.547          0.861          0.481          0.326          1.297          0.941          0.014         -0.735         -2.050         -0.249         -0.884         -0.576         -0.196         -0.251         -0.233         -0.132         -0.125         -0.153         -0.101         -0.095         -0.111         -0.060         -0.104          0.006          0.536         -0.027         -0.524         -0.202          0.013          0.008         -0.003         -0.089          0.344        135.447
       4000.000         -1.228          0.032          0.059          0.061         -0.011         -0.096         -0.177         -0.084         -0.059         -0.100         -0.010         -0.044         -0.064         -0.066         -0.020         -0.423          0.515         -0.116          0.003          0.035         -0.037          0.063          0.061          0.045          0.154          0.097          0.132          0.162          0.150          0.214          0.146          0.130          0.205          0.282          0.297          0.193          0.127          0.142          0.160          0.092         -0.052         -0.399         -0.154          0.009         -0.429         -0.658         -0.239         -0.234         -0.279          3.401         -0.147         -0.223         -0.047          0.024          0.082         -0.045          0.056          0.110          0.283         -2.539          0.255          0.297          0.358          3.918          0.370          0.921          1.060          0.161         -0.130         37.003          0.612         -0.296         -0.521         -0.641         -0.292         -0.219         -0.449         -0.225         -0.219         -0.372         -0.190         -0.213         -0.110         -0.126         -0.111         -0.104          1.008         -1.004         -0.047         -0.069         -0.041         -0.031         -0.025         -0.006          0.003          0.004         -0.022         -0.038          0.018         -0.007         -0.000         -0.001          0.015          0.010          0.011          0.066          0.058         -0.135         -0.205          0.092          0.121          0.124          0.110          0.161          0.126          0.191          0.174          0.312          0.236          0.114          0.133          0.119          0.057          0.088         -0.066         -0.107         -0.135         -0.239         -0.140         -0.121         -0.121         -0.165         -0.581         -0.001          0.070         -0.018          1.299          0.151          0.119          0.042          0.102         -0.288          0.061         -0.048          0.237          0.127          2.081          1.009          0.682          0.223         -0.087          2.579          0.156         -0.066         -0.117          1.100         -0.028         -0.062         -0.131         -0.177         -0.150         -0.126         -0.136         -0.123         -0.099         -0.073         -0.090         -0.074         -0.054         -0.386         -0.058         -0.021         -0.023         -0.030         -0.029         -0.146          0.014         -0.086         -0.231         -0.027         -0.102          0.002         -0.013          0.030          0.032         -0.362          0.588         -0.228         -0.269          0.068          0.089          0.061          0.104          0.131          0.098          0.133          0.130          0.193          0.196          0.211          0.225          0.200          0.148          0.182          0.609         -0.030         -0.099          0.719          0.571         -0.123         -0.302          2.663         -0.138         -0.096         -0.152         -0.135         -0.032         -0.015         -0.050          0.073         -0.058         -0.053         -0.131          0.320          0.307          1.651          0.295          0.388          0.685          0.442          0.391          1.872          0.814          0.030         -0.647         -0.847         -0.153         -0.714         -0.386         -0.158         -0.201         -0.237         -0.124         -0.112         -0.134         -0.088         -0.013         -0.101         -0.066         -0.079          0.002          0.504         -0.054         -0.488         -0.184          0.018         -0.003         -0.029         -0.149          0.425        138.390
       8000.000         -1.204          0.035          0.116          0.082          0.048         -0.089         -0.135         -0.084         -0.054         -0.104         -0.043         -0.057         -0.058         -0.064         -0.032         -0.344          0.469         -0.157          0.006          0.032         -0.017          0.048          0.033          0.042          0.135          0.116          0.137          0.125          0.123          0.173          0.142          0.143          0.146          0.205          0.236          0.151          0.118          0.124          0.205          0.007         -0.091         -0.311         -0.013         -0.032         -0.381         -0.544         -0.230         -0.233         -0.259          1.885         -0.125         -0.163         -0.052          0.052          0.082         -0.020         -0.050          0.090          0.239         -2.141          0.220          0.251          0.258          3.341          0.347          0.772          1.104          0.196          0.008         44.320          0.933         -0.186         -0.822         -0.522         -0.065         -0.239         -0.207         -0.246         -0.214         -0.320         -0.187         -0.199         -0.118         -0.136         -0.126         -0.095          0.998         -1.020         -0.046         -0.076         -0.047         -0.034         -0.025         -0.008          0.004          0.000         -0.027         -0.016         -0.039          0.005         -0.007          0.003          0.021          0.009          0.038          0.050          0.048         -0.201         -0.289          0.085          0.105          0.130          0.120          0.162          0.148          0.170          0.163          0.302          0.159          0.063          0.108          0.176          0.013          0.080         -0.062         -0.102         -0.122         -0.214         -0.129         -0.140         -0.108         -0.257         -0.537          0.053         -0.101         -0.016          1.213          0.121          0.064          0.045          0.063         -0.198          0.002          0.484          0.264          0.140          2.187          0.657          0.431          0.078         -0.069          2.200          0.138         -0.041         -0.021          1.272          0.069         -0.018         -0.085         -0.184         -0.178         -0.122         -0.132         -0.135         -0.108         -0.064         -0.099         -0.047         -0.052         -0.386         -0.056         -0.023         -0.024         -0.027         -0.029         -0.144          0.018         -0.077         -0.234         -0.024         -0.036          0.004         -0.017          0.028          0.039         -0.349          0.613         -0.210         -0.327          0.073          0.091          0.078          0.125          0.133          0.153          0.161          0.169          0.243          0.215          0.243          0.222          0.208          0.249          0.189          0.760          0.039         -0.087          0.748          0.425         -0.146         -0.299          2.416         -0.145         -0.126         -0.190         -0.158         -0.036         -0.026         -0.047          0.067         -0.024         -0.072         -0.165          0.368          0.280          1.949          0.313          0.529          0.711          0.405          0.450          1.321          0.634         -0.040         -0.559         -1.190         -0.185         -0.683         -0.397         -0.167         -0.218         -0.175         -0.108         -0.126         -0.127         -0.094         -0.039         -0.113         -0.061         -0.082         -0.005          0.490         -0.055         -0.487         -0.167          0.009          0.003         -0.016         -0.097          0.330        137.134
      12000.000         -1.125          0.052          0.070          0.082          0.032         -0.074         -0.129         -0.074         -0.047         -0.094         -0.014         -0.039         -0.059         -0.061         -0.022         -0.413          0.513         -0.129          0.008          0.035         -0.012          0.005          0.037          0.062          0.137          0.089          0.121          0.133          0.143          0.241          0.145          0.149          0.145          0.280          0.306          0.159          0.082          0.095          0.042          0.146          0.011         -0.277          0.032         -0.053         -0.538         -0.597         -0.169         -0.190         -0.212          2.606         -0.135         -0.157         -0.077         -0.008          0.067         -0.013         -0.052          0.077          0.279         -2.614          0.269          0.276          0.346          4.071          0.354          0.828          0.540          0.114         -0.128         36.071          0.282         -0.193         -0.747         -0.418          0.308         -0.218         -0.485         -0.248         -0.283         -0.330         -0.183         -0.175         -0.114         -0.117         -0.120         -0.092          1.002         -0.989         -0.050         -0.079         -0.039         -0.028         -0.023         -0.007          0.010          0.006         -0.025         -0.007         -0.015         -0.010         -0.004          0.003          0.012          0.006          0.040          0.057          0.040         -0.192         -0.356          0.085          0.132          0.127          0.147          0.171          0.193          0.176          0.177          0.312          0.154          0.160          0.190          0.142          0.063          0.123         -0.050         -0.095         -0.123         -0.273         -0.125         -0.139         -0.095         -0.302         -0.657         -0.054          0.052         -0.051          1.235          0.152          0.123          0.040          0.136         -0.257         -0.010          0.581          0.307          0.116          2.149          1.050          0.515          0.102         -0.088          2.921          0.249         -0.078         -0.092          1.280          0.059         -0.039         -0.123         -0.175         -0.184         -0.129         -0.142         -0.140         -0.094         -0.075         -0.093         -0.070         -0.050         -0.378         -0.057         -0.018         -0.024         -0.031         -0.026         -0.147          0.022         -0.089         -0.252         -0.037         -0.042          0.009         -0.013          0.031          0.043         -0.437          0.634         -0.236         -0.541          0.059          0.084          0.071          0.106          0.101          0.117          0.136          0.118          0.201          0.167          0.197          0.237          0.224          0.151          0.164          0.768          0.050         -0.069          0.659          0.566         -0.106         -0.239          1.869         -0.120         -0.123         -0.186         -0.133         -0.021         -0.009         -0.037          0.095         -0.069         -0.059         -0.127          0.263          0.325          1.761          0.264          0.360          0.781          0.405          0.377          1.848          0.931          0.000         -0.666         -0.174         -0.198         -0.633         -0.364         -0.163         -0.212         -0.250         -0.106         -0.102         -0.124         -0.092         -0.085         -0.104         -0.055         -0.020         -0.014          0.540         -0.050         -0.348         -0.173          0.028         -0.001         -0.018         -0.133          0.394        133.250
      16000.000         -0.812          0.034          0.117          0.088          0.056         -0.056         -0.086         -0.037         -0.030         -0.072         -0.007         -0.032         -0.045         -0.052         -0.022         -0.270          0.359         -0.087         -0.001          0.024         -0.011          0.034          0.043          0.048          0.093          0.072          0.108          0.099          0.113          0.179          0.144          0.149          0.137          0.252          0.270          0.139          0.165          0.108          0.069          0.081          0.136         -0.183          0.146         -0.055         -0.458         -0.436         -0.156         -0.230         -0.240          2.962         -0.125         -0.151         -0.074          0.078          0.038         -0.079         -0.116          0.142          0.359         -3.171          0.297          0.285          0.492          4.409          0.426          1.235          0.968         -0.008         -0.389         44.745          0.548         -0.175         -0.803         -0.592         -0.306         -0.206         -0.416         -0.228         -0.262         -0.327         -0.161         -0.149         -0.100         -0.097         -0.107         -0.076          0.749         -0.733         -0.046         -0.057         -0.028         -0.023         -0.019         -0.006         -0.002          0.001         -0.022         -0.019          0.016          0.008         -0.002          0.003          0.017          0.002          0.013          0.068          0.049         -0.172         -0.255          0.073          0.116          0.109          0.076          0.145          0.147          0.161          0.178          0.280          0.182          0.121          0.166          0.162          0.080          0.113         -0.002          0.013         -0.078         -0.170         -0.075         -0.161         -0.177          0.090         -0.180         -0.025          0.049         -0.030          1.615          0.207          0.094          0.103          0.208         -0.253          0.061          1.111          0.264          0.086          2.336          0.702          0.184         -0.004         -0.153          2.279          0.341         -0.060         -0.053          1.732         -0.015         -0.033         -0.116         -0.181         -0.163         -0.115         -0.123         -0.108         -0.067         -0.061         -0.081         -0.053         -0.043         -0.285         -0.044         -0.012         -0.013         -0.023         -0.021         -0.102          0.014         -0.056         -0.190         -0.016         -0.044         -0.007         -0.015          0.022          0.029         -0.260          0.442         -0.182         -0.321          0.051          0.059          0.050          0.091          0.090          0.117          0.115          0.101          0.169          0.162          0.156          0.136          0.147          0.169          0.129          0.425          0.097          0.038          0.673          0.510         -0.076         -0.307          3.963         -0.029         -0.100         -0.374         -0.157         -0.047         -0.018         -0.031          0.108         -0.065         -0.056         -0.177          0.339          0.328          1.962          0.256          2.234          0.421          0.211          0.180          1.749          0.256         -0.076         -0.326         -1.754         -0.123         -0.440         -0.327         -0.109         -0.148         -0.189         -0.080         -0.089         -0.099         -0.069         -0.071         -0.085         -0.045         -0.031         -0.000          0.350         -0.031         -0.262         -0.124          0.005         -0.001         -0.004         -0.096          0.263        125.266
      20000.000         -0.947          0.022          0.080          0.079          0.011         -0.088         -0.132         -0.053         -0.043         -0.089         -0.014         -0.028         -0.048         -0.060         -0.041         -0.360          0.472         -0.165          0.006          0.034         -0.006          0.047          0.036          0.047          0.132          0.084          0.116          0.117          0.119          0.223          0.112          0.151          0.170          0.229          0.210          0.181          0.150          0.131          0.178          0.034         -0.092         -0.455          0.292         -0.023         -0.254         -0.560         -0.176         -0.215         -0.300          3.133         -0.121         -0.156         -0.073          0.077          0.083         -0.062         -0.122          0.144          0.306         -2.656          0.256          0.297          0.357          3.807          0.388          0.952          0.848          0.140         -0.111         42.839          0.759         -0.181         -0.451         -0.321         -0.335         -0.217         -0.426         -0.223         -0.234         -0.328         -0.160         -0.177         -0.113         -0.121         -0.123         -0.085          1.030         -1.037         -0.061         -0.072         -0.047         -0.034         -0.019         -0.014          0.004          0.009         -0.025         -0.010          0.005          0.013         -0.005          0.002          0.020          0.010          0.014          0.078          0.063         -0.189         -0.336          0.086          0.115          0.140          0.145          0.168          0.153          0.193          0.139          0.306          0.146          0.090          0.159          0.135          0.042          0.093          0.010         -0.106         -0.133         -0.228         -0.187         -0.135         -0.123         -0.274         -0.542         -0.062          0.016         -0.071          1.507          0.154          0.124          0.011          0.144         -0.269          0.012          0.469          0.305          0.121          2.060          0.866          0.653          0.261         -0.062          1.998          0.285         -0.062         -0.095          0.920         -0.024         -0.021         -0.101         -0.175         -0.189         -0.130         -0.140         -0.125         -0.103         -0.074         -0.102         -0.059         -0.059         -0.420         -0.060         -0.026         -0.023         -0.035         -0.031         -0.139          0.023         -0.089         -0.278         -0.033         -0.174         -0.006         -0.021          0.027          0.035         -0.415          0.690         -0.294         -0.561          0.055          0.095          0.111          0.112          0.109          0.137          0.161          0.134          0.201          0.188          0.196          0.237          0.182          0.212          0.193          0.832          0.036         -0.076          0.599          0.419         -0.165         -0.292          2.596         -0.128         -0.113         -0.245         -0.167         -0.049         -0.047         -0.051          0.094         -0.074         -0.055         -0.117          0.279          0.284          1.943          0.342          0.594          0.750          0.386          0.382          1.596          0.859         -0.020         -0.552         -1.895         -0.180         -0.631         -0.291         -0.161         -0.188         -0.167         -0.101         -0.107         -0.134         -0.070         -0.086         -0.102         -0.056         -0.075         -0.014          0.517         -0.037         -0.370         -0.117         -0.000         -0.009         -0.013         -0.168          0.336        132.917
      24000.000         -1.054          0.021          0.111          0.074          0.045         -0.083         -0.154         -0.060         -0.037         -0.076         -0.006         -0.021         -0.046         -0.054         -0.032         -0.423          0.439         -0.128          0.015          0.025         -0.013          0.050          0.035          0.088          0.130          0.067          0.116          0.129          0.133          0.170          0.160          0.156          0.185          0.271          0.364          0.180          0.100          0.142          0.238          0.038         -0.085         -0.267         -0.086         -0.012         -0.374         -0.669         -0.203         -0.211         -0.238          3.688         -0.115         -0.158         -0.009          0.065          0.076         -0.032         -0.110          0.113          0.260         -2.046          0.183          0.237          0.198          3.221          0.322          0.899          0.951          0.198         -0.080         39.724          0.710         -0.268         -0.697         -0.063         -0.087         -0.214         -0.405         -0.216         -0.247         -0.352         -0.176         -0.147         -0.101         -0.114         -0.094         -0.073          0.912         -0.962         -0.052         -0.070         -0.033         -0.027         -0.019         -0.007          0.001          0.005         -0.024         -0.034          0.000          0.018         -0.008          0.006          0.027          0.027          0.038          0.039          0.067         -0.204         -0.343          0.076          0.093          0.096          0.125          0.147          0.123          0.147          0.150          0.206          0.146          0.095          0.101          0.136          0.022          0.082         -0.176         -0.109         -0.105         -0.129         -0.105         -0.127         -0.056         -0.155         -0.572         -0.055          0.008         -0.032          1.084          0.115          0.129          0.036          0.087         -0.187         -0.038          0.531          0.188          0.066          1.748          0.753          0.471          0.069         -0.056          2.555          0.467         -0.047         -0.053          1.569          0.047         -0.029         -0.078         -0.168         -0.147         -0.123         -0.121         -0.137         -0.080         -0.065         -0.093         -0.064         -0.048         -0.359         -0.053         -0.019         -0.019         -0.027         -0.025         -0.130          0.016         -0.087         -0.237         -0.025         -0.098          0.006         -0.017          0.028          0.031         -0.444          0.623         -0.284         -0.487          0.058          0.085          0.110          0.117          0.111          0.107          0.134          0.154          0.199          0.170          0.206          0.220          0.237          0.247          0.248          0.799          0.093         -0.114          0.893          0.423         -0.103         -0.313          3.238         -0.099         -0.123         -0.345         -0.161         -0.079         -0.012         -0.026          0.133         -0.068         -0.052         -0.162          0.423          0.362          2.185          0.345          0.765          0.804          0.408          0.390          2.089          0.672         -0.157         -0.707          0.300         -0.151         -0.656         -0.457         -0.162         -0.209         -0.205         -0.109         -0.099         -0.124         -0.077         -0.090         -0.106         -0.063         -0.080         -0.002          0.491         -0.027         -0.540         -0.239          0.032         -0.000         -0.020         -0.127          0.409        124.775