# Time	LEU-41	ALA-42	ILE-43	VAL-44	PHE-45	GLY-46	ASN-47	GLY-48	LEU-49	VAL-50	CYS-51	MET-52	ALA-53	VAL-54	LEU-55	LYS-56	GLU-57	ARG-58	ALA-59	LEU-60	GLN-61	THR-62	THR-63	THR-64	ASN-65	TYR-66	LEU-67	VAL-68	VAL-69	SER-70	LEU-71	ALA-72	VAL-73	ALA-74	ASH-75	LEU-76	LEU-77	VAL-78	ALA-79	THR-80	LEU-81	VAL-82	MET-83	PRO-84	TRP-85	VAL-86	VAL-87	TYR-88	LEU-89	GLU-90	VAL-91	THR-92	GLY-93	GLY-94	VAL-95	TRP-96	ASN-97	PHE-98	SER-99	ARG-100	ILE-101	CYS-102	CYX-103	ASP-104	VAL-105	PHE-106	VAL-107	THR-108	LEU-109	ASP-110	VAL-111	MET-112	MET-113	CYS-114	THR-115	ALA-116	SER-117	ILE-118	TRP-119	ASN-120	LEU-121	CYS-122	ALA-123	ILE-124	SER-125	ILE-126	ASP-127	ARG-128	TYR-129	THR-130	ALA-131	VAL-132	VAL-133	MET-134	PRO-135	VAL-136	HID-137	TYR-138	GLN-139	HID-140	GLY-141	THR-142	GLY-143	GLN-144	SER-145	SER-146	CYS-147	ARG-148	ARG-149	VAL-150	ALA-151	LEU-152	MET-153	ILE-154	THR-155	ALA-156	VAL-157	TRP-158	VAL-159	LEU-160	ALA-161	PHE-162	ALA-163	VAL-164	SER-165	CYS-166	PRO-167	LEU-168	LEU-169	PHE-170	GLY-171	PHE-172	ASN-173	THR-174	THR-175	GLY-176	ASP-177	PRO-178	THR-179	VAL-180	CYX-181	SER-182	ILE-183	SER-184	ASN-185	PRO-186	ASP-187	PHE-188	VAL-189	ILE-190	TYR-191	SER-192	SER-193	VAL-194	VAL-195	SER-196	PHE-197	TYR-198	LEU-199	PRO-200	PHE-201	GLY-202	VAL-203	THR-204	VAL-205	LEU-206	VAL-207	TYR-208	ALA-209	ARG-210	ILE-211	TYR-212	VAL-213	VAL-214	LEU-215	LYS-216	GLN-217	ARG-218	ARG-219	ARG-220	LYS-221	GLY-319	VAL-320	PRO-321	LEU-322	ARG-323	GLU-324	LYS-325	LYS-326	ALA-327	THR-328	GLN-329	MET-330	VAL-331	ALA-332	ILE-333	VAL-334	LEU-335	GLY-336	ALA-337	PHE-338	ILE-339	VAL-340	CYS-341	TRP-342	LEU-343	PRO-344	PHE-345	PHE-346	LEU-347	THR-348	HIE-349	VAL-350	LEU-351	ASN-352	THR-353	HID-354	CYX-355	GLN-356	THR-357	CYX-358	HID-359	VAL-360	SER-361	PRO-362	GLU-363	LEU-364	TYR-365	SER-366	ALA-367	THR-368	THR-369	TRP-370	LEU-371	GLY-372	TYR-373	VAL-374	ASN-375	SER-376	ALA-377	LEU-378	ASN-379	PRO-380	VAL-381	ILE-382	TYR-383	THR-384	THR-385	PHE-386	ASN-387	ILE-388	GLU-389	PHE-390	ARG-391	LYS-392	ALA-393	PHE-394	LEU-395	LYS-396	ILE-397	DPN-14602	
          0.000         14.853         -0.190         -0.064         -0.151          0.109          0.444          0.547          0.133          0.194          0.467          0.506          0.365          0.274          0.307          0.217         10.054         -9.926          8.414          0.004         -0.134          0.039         -0.339         -0.225         -0.180         -0.684         -0.290         -0.498         -0.616         -0.536         -0.824         -0.788         -0.625         -0.594         -0.671         -1.968         -0.561         -0.052         -0.125         -0.374          0.215          0.597          1.137         -1.358         -0.079          0.551          0.741         -0.170          0.551          1.341        -29.286          0.351          1.337          0.922          0.234         -0.428         -0.222         -0.332         -0.426         -1.187         22.459         -1.022         -0.784         -2.286        -26.369         -1.379         -2.332         -3.421         -1.209         -0.489       -111.599         -9.425         -0.449          2.729          0.038          0.653          1.087          2.529          1.412          1.383          1.958          0.901          0.996          0.499          0.521          0.401          0.371        -12.122         12.246          0.311          0.240          0.175          0.213          0.189         -0.041         -0.055         -0.054          0.184          0.017         -0.194         -0.058          0.079          0.152         -0.180         -0.004         -0.246         -0.306         -0.274          9.507          9.748         -0.348         -0.425         -0.431         -0.181         -0.516         -0.356         -0.439         -0.647         -0.985         -0.487         -0.392         -0.857         -1.038         -0.143         -0.687          0.131          0.080          0.454          1.241          0.336          0.571          0.887          0.306         -3.019         -0.268         -0.025          0.391        -18.104         -0.736         -0.430          0.082         -0.014         -1.230         -0.042          2.716         -1.243         -0.780        -19.321         -1.637         -1.903         -0.837          0.286         -6.976         -1.308         -0.110          0.054         -3.199         -0.146          0.571          0.442          0.836          0.545          0.378          0.423          0.496          0.339          0.272          0.341          0.236          0.229         10.112          0.297          0.174          0.153          0.181          0.221          8.675         -0.099          7.921          8.942          7.573          7.706          0.079          0.077         -0.202         -0.193          9.232        -10.468          8.838          9.753         -0.286         -0.414         -0.303         -0.533         -0.482         -0.476         -0.532         -0.623         -0.857         -0.672         -0.739         -1.171         -1.345         -0.577         -0.296         -3.734         -1.250          0.443         -6.274         -3.810         -0.492          1.574         -1.651          0.188          0.718          3.377          0.218          0.542         -0.074         -0.005         -0.306          0.382          0.455          0.312         -1.383         -1.160        -20.226         -1.073         -3.151         -3.061         -1.077         -1.828         -5.089         -2.235          0.385          3.867          1.309          0.814          3.318          2.114          0.771          0.929          1.187          0.495          0.482          0.569          0.415          0.386          0.415          0.302          0.447         -0.006        -10.200          0.154         10.819          9.085         -0.139         -0.033          0.088          8.582         -9.596       -131.951
       4000.000         15.547          0.008          0.019         -0.139          0.139          0.375          0.666          0.195          0.229          0.408          0.105          0.054          0.276          0.305          0.182         10.155         -9.934          8.268         -0.016         -0.142          0.100         -0.327         -0.211         -0.175         -0.687         -0.363         -0.557         -0.670         -0.582         -0.757         -0.893         -0.491         -0.720         -1.154         -2.113         -0.547          0.096          0.286         -0.011          0.176          0.442          0.942          0.011         -0.257          0.842          1.019          0.017          0.482          1.384        -29.279          0.498          1.365          1.027         -0.103         -0.622         -0.189         -0.194         -0.430         -1.340         23.506         -1.109         -1.019         -2.591        -27.454         -1.276         -2.353         -3.688         -1.794         -0.684       -113.625         -8.961          0.481          2.433          2.444          1.133          1.171          2.546          1.317          1.461          1.885          0.878          0.824          0.507          0.533          0.443          0.390        -12.142         12.196          0.318          0.275          0.212          0.216          0.197         -0.046         -0.076         -0.073          0.144          0.029         -0.267         -0.042         -0.031          0.052         -0.134         -0.141         -0.086         -0.270         -0.266          9.368          9.687         -0.348         -0.377         -0.388         -0.421         -0.527         -0.455         -0.477         -0.735         -1.051         -0.713         -0.496         -0.811         -0.776         -0.143         -0.415         -0.021          0.009          0.486          1.279          0.222          0.495          0.607          0.043         -2.764          0.489         -0.320          0.255        -17.153         -0.826         -0.585         -0.020         -0.180         -0.512          0.274          0.394         -1.233         -0.599        -18.672         -1.623         -1.733         -1.081          0.127         -6.902         -1.879         -0.054          0.376         -2.629         -0.015          0.608          0.505          0.795          0.477          0.399          0.456          0.438          0.341          0.297          0.380          0.291          0.198         10.032          0.309          0.168          0.155          0.203          0.213          8.842         -0.100          8.011          8.693          6.862          7.524          0.017          0.071         -0.190         -0.197          9.490        -10.508          8.721          9.303         -0.300         -0.388         -0.161         -0.563         -0.508         -0.333         -0.395         -0.519         -0.823         -0.641         -0.658         -1.227         -1.237         -0.539         -0.505         -3.713         -0.545          0.194         -5.207         -3.890         -0.345          1.725          0.202         -0.107          0.398          2.235         -0.139          0.579          0.074          0.201         -0.429          0.112          0.284          0.351         -1.381         -1.207        -19.228         -1.071         -1.786         -1.725         -1.036         -2.153         -4.880         -2.562          0.197          2.994          0.113          0.604          3.153          1.680          0.609          0.845          1.381          0.487          0.470          0.546          0.366          0.097          0.370          0.317          0.309         -0.007        -10.049          0.172         10.823          8.850         -0.178          0.104          0.198          8.690        -10.045       -130.590
       8000.000         14.557         -0.050         -0.300         -0.244         -0.062          0.343          0.512          0.215          0.210          0.414          0.173          0.147          0.240          0.298          0.196          9.658         -9.710          8.721         -0.035         -0.151          0.041         -0.261         -0.126         -0.155         -0.593         -0.399         -0.519         -0.553         -0.503         -0.581         -0.779         -0.587         -0.529         -1.018         -1.605         -0.584         -0.059          0.248         -0.142          0.367          0.537          0.709         -0.627         -0.189          0.489          0.627         -0.021          0.630          1.560        -24.792          0.374          1.156          1.062         -0.106         -0.350          0.041          0.335         -0.410         -1.285         21.901         -0.909         -0.867         -2.076        -25.910         -0.997         -1.514         -3.307         -1.811         -0.755       -108.688         -9.984         -0.201          2.442          1.077          0.230          1.154          1.092          1.459          1.353          1.756          0.849          0.825          0.499          0.575          0.493          0.349        -12.055         12.319          0.287          0.305          0.246          0.237          0.199         -0.038         -0.092         -0.036          0.173          0.012          0.215         -0.047          0.020         -0.007         -0.175         -0.060         -0.246         -0.273         -0.265          9.281         10.141         -0.326         -0.346         -0.400         -0.407         -0.538         -0.479         -0.409         -0.750         -1.006         -0.553         -0.342         -0.748         -0.876         -0.140         -1.271          0.084          0.174          0.499          1.143          0.316          0.544          0.740         -0.728         -2.382         -0.578          0.414          0.110        -17.221         -0.600         -0.336          0.008         -0.205         -0.654         -0.006          2.041         -1.130         -0.975        -19.406         -0.634         -2.015         -0.691          0.354         -4.962         -0.763         -0.065          0.080         -2.826         -0.284          0.812          0.440          0.851          0.563          0.356          0.466          0.451          0.380          0.264          0.388          0.162          0.223         10.078          0.294          0.131          0.163          0.191          0.215          8.846         -0.101          7.982          8.798          6.848          7.496          0.002          0.091         -0.180         -0.226          9.497        -10.741          8.863          9.702         -0.321         -0.421         -0.097         -0.601         -0.521         -0.514         -0.474         -0.666         -0.875         -0.762         -0.762         -0.881         -1.200         -0.794         -0.739         -4.484         -0.941          0.160         -8.380         -3.546         -0.327          1.993          1.397         -0.141          0.462          2.564         -0.337          0.531         -0.066          0.065         -0.395          0.398          0.412          0.405         -1.654         -1.136        -20.117         -1.073         -2.969         -1.708         -1.049         -3.167         -6.425         -3.055          0.643          3.623         -0.933          0.680          2.845          1.926          0.683          0.884          0.942          0.449          0.468          0.510          0.380          0.180          0.392          0.289          0.321          0.032         -9.929          0.203         10.780          8.723         -0.108          0.014          0.143          8.362         -9.559       -128.795
      12000.000         14.278         -0.092         -0.144         -0.221          0.016          0.274          0.501          0.178          0.173          0.380          0.089          0.286          0.271          0.290          0.180         10.062         -9.853          8.305         -0.015         -0.160          0.029         -0.039         -0.142         -0.266         -0.605         -0.301         -0.486         -0.579         -0.584         -0.823         -0.840         -0.583         -0.525         -1.055         -1.988         -0.504          0.030          0.199          0.202         -0.172          0.015          0.557         -0.662         -0.170          1.067          1.074         -0.184          0.416          1.420        -26.574          0.514          0.821          0.885         -0.122         -0.152         -0.171          0.274         -0.518         -1.323         23.832         -1.127         -0.837         -2.557        -27.849         -1.504         -2.366         -3.179         -1.405         -0.596       -102.803         -8.185          0.066          2.748          3.615         -0.356          1.089          2.310          1.383          1.407          1.674          0.833          0.759          0.481          0.505          0.501          0.375        -12.038         11.993          0.179          0.299          0.215          0.216          0.203         -0.046         -0.102         -0.068          0.126         -0.037         -0.059         -0.013          0.006         -0.021         -0.132         -0.101         -0.246         -0.229         -0.287          9.106         10.114         -0.330         -0.403         -0.376         -0.528         -0.577         -0.641         -0.453         -0.725         -1.081         -0.534         -0.652         -1.010         -0.738         -0.250         -1.324          0.093          0.045          0.276          1.268          0.285          0.612          0.649         -0.486         -3.588          0.344         -0.375          0.313        -17.100         -0.844         -0.567          0.079         -0.157         -0.756          0.087          2.723         -1.044         -0.746        -19.514         -1.426         -1.749         -0.835          0.287         -7.476         -3.046         -0.114          0.141         -3.072         -0.357          0.771          0.498          0.791          0.601          0.381          0.469          0.567          0.383          0.330          0.386          0.269          0.233         10.048          0.304          0.205          0.178          0.208          0.187          8.851         -0.107          8.104          8.823          6.916          7.591         -0.015          0.051         -0.187         -0.182          9.358        -10.386          8.643         10.154         -0.297         -0.410         -0.148         -0.537         -0.413         -0.432         -0.428         -0.440         -0.808         -0.544         -0.608         -1.045         -1.220         -0.294         -0.419         -4.594         -1.160         -0.038         -3.600         -5.100         -0.249          1.733          1.577          0.044          0.520          2.838         -0.400          0.407          0.028          0.248         -0.523          0.380          0.384          0.228         -1.321         -1.179        -19.523         -0.877         -2.171         -2.800         -1.001         -1.767         -5.478         -2.641          0.395          3.325         -0.701          0.739          2.847          1.760          0.643          0.874          1.234          0.415          0.420          0.521          0.398          0.382          0.387          0.326          0.128          0.035         -9.832          0.173         10.123          8.528         -0.152          0.062          0.144          8.567         -9.949       -122.708
      16000.000         13.721         -0.010         -0.201         -0.201         -0.096          0.271          0.501          0.130          0.140          0.331          0.078          0.061          0.208          0.280          0.200          9.361         -9.323          7.874         -0.004         -0.109          0.031         -0.176         -0.163         -0.204         -0.487         -0.305         -0.456         -0.430         -0.460         -0.632         -0.686         -0.605         -0.479         -0.820         -1.459         -0.554         -0.444         -0.230          0.048         -0.061         -0.208          0.137         -0.830         -0.271          0.526          0.385         -0.184          0.603          1.747        -29.790          0.544          1.509         -1.153         -0.789         -0.100          0.116          0.623         -0.626         -1.774         25.954         -1.143         -0.919         -2.783        -28.684         -1.218         -2.272         -3.601         -0.852          0.561        -98.455         -6.467          0.096          2.334          2.787          1.041          0.819          1.847          1.070          1.295          1.443          0.710          0.662          0.414          0.414          0.460          0.332        -11.269         11.280          0.175          0.255          0.166          0.199          0.176         -0.036         -0.071         -0.052          0.142          0.002         -0.127         -0.091          0.003         -0.011         -0.158         -0.109         -0.108         -0.342         -0.281          9.055          9.620         -0.305         -0.394         -0.365         -0.193         -0.504         -0.527         -0.437         -0.724         -0.986         -0.567         -0.544         -0.905         -0.757         -0.270         -0.776         -0.253         -0.209          0.358          0.937         -0.052          0.401          0.875         -1.034         -4.659          0.333         -0.085          0.218        -19.426         -0.957         -0.550          0.122         -0.032         -3.776          0.475         -0.143         -1.754         -0.526        -19.893         -2.128         -2.314         -0.429          0.272         -7.134         -2.177         -0.141          0.427         -3.123          0.279          0.491          0.504          0.834          0.611          0.389          0.438          0.475          0.333          0.282          0.358          0.236          0.219          9.601          0.276          0.173          0.137          0.184          0.183          8.454         -0.078          7.651          8.520          6.611          7.295          0.077          0.093         -0.179         -0.190          9.022         -9.931          8.378          9.459         -0.258         -0.314         -0.109         -0.508         -0.376         -0.450         -0.399         -0.441         -0.712         -0.568         -0.639         -0.771         -0.791         -0.622         -0.607         -2.934         -1.020         -0.380          2.371         -3.004         -0.068          2.034         -4.911         -0.456          0.226          3.345         -0.314          0.787         -0.078          0.272         -0.601          0.385          0.372          0.445         -1.506         -1.245        -21.656         -1.051         -6.235         -0.829         -0.812         -1.716         -5.209         -1.037          0.587          2.395          1.208          0.554          2.123          1.487          0.536          0.663          0.872          0.387          0.404          0.452          0.329          0.332          0.400          0.232          0.164         -0.015         -9.343          0.134          9.811          8.350         -0.104          0.047          0.085          8.065         -9.345       -135.653
      20000.000         14.455         -0.014         -0.220         -0.237          0.065          0.361          0.515          0.147          0.192          0.392          0.140          0.089          0.227          0.292          0.220          9.705         -9.734          8.445         -0.036         -0.153         -0.008         -0.267         -0.142         -0.191         -0.619         -0.297         -0.543         -0.577         -0.554         -0.870         -0.837         -0.639         -0.531         -0.867         -2.268         -0.508         -0.068          0.481         -0.057          0.348          0.604          1.302         -1.225         -0.152          0.229          1.019         -0.262          0.393          1.376        -28.153          0.338          1.107          1.015         -0.261         -0.515         -0.150          0.362         -0.622         -1.356         23.067         -0.982         -1.050         -2.199        -26.010         -1.297         -2.124         -3.380         -1.838         -0.848       -109.714         -9.113         -0.786          1.214         -0.111          0.196          1.142          2.486          1.405          1.401          1.905          0.905          0.784          0.527          0.597          0.560          0.365        -12.332         12.434          0.238          0.312          0.251          0.247          0.170          0.002         -0.071         -0.093          0.134         -0.029          0.003         -0.108          0.005         -0.010         -0.180         -0.011         -0.052         -0.374         -0.364          9.433         10.228         -0.350         -0.360         -0.404         -0.494         -0.571         -0.508         -0.458         -0.576         -1.071         -0.444         -0.301         -0.872         -0.702         -0.156         -0.488         -0.166          0.114          0.429          1.100          0.347          0.539          0.801         -1.036         -3.807          0.395          0.689          0.474        -18.364         -0.457         -0.429          0.359         -0.163         -2.366         -0.005          2.644         -0.965         -0.835        -19.145         -1.411         -2.630         -1.349          0.207         -6.079         -2.218         -0.448          0.332         -2.607          0.092          0.628          0.486          0.923          0.637          0.408          0.511          0.377          0.401          0.311          0.419          0.192          0.246         10.285          0.325          0.203          0.177          0.219          0.217          8.827         -0.124          8.086          9.076          7.250          8.079          0.113          0.116         -0.177         -0.198          9.566        -10.884          9.045         10.407         -0.291         -0.457         -0.382         -0.595         -0.454         -0.473         -0.476         -0.508         -0.833         -0.718         -0.585         -0.965         -1.010         -0.604         -0.437         -3.707         -0.859         -0.093         -3.570         -2.997         -0.039          1.779          1.217          0.273          0.403          2.754          0.122          0.642          0.032          0.413         -0.481          0.321          0.340          0.347         -1.281         -1.257        -20.000         -1.307         -4.574         -2.077         -1.063         -2.406         -6.988         -2.783          0.194          2.759          1.901          0.729          2.827          1.773          0.641          0.786          1.191          0.417          0.424          0.581          0.324          0.394          0.394          0.302          0.261          0.053         -9.960          0.098         10.105          8.207         -0.075          0.107          0.139          8.396         -9.517       -131.924
      24000.000         14.167         -0.005         -0.233         -0.136         -0.025          0.284          0.579          0.164          0.134          0.298          0.109          0.058          0.218          0.264          0.185          9.762         -9.299          8.001         -0.063         -0.104          0.011         -0.259         -0.121         -0.450         -0.575         -0.234         -0.447         -0.490         -0.487         -0.546         -0.701         -0.558         -0.552         -0.866         -1.722         -0.549         -0.122         -0.239         -0.447          0.156          0.288          0.251         -0.283         -0.265          0.286          1.214         -0.269          0.682          1.662        -32.701          0.394          1.451          1.292         -0.084         -0.209         -0.031          0.565         -0.624         -1.471         23.321         -1.084         -0.955         -2.367        -27.909         -1.087         -1.621         -2.540         -1.351          0.014        -96.358         -6.722          0.721          2.398          0.070          0.744          0.917          1.910          1.135          1.249          1.526          0.766          0.608          0.426          0.483          0.383          0.307        -11.553         11.772          0.195          0.280          0.178          0.202          0.178         -0.030         -0.065         -0.066          0.152          0.084         -0.023         -0.143          0.028         -0.035         -0.181         -0.200         -0.248         -0.185         -0.347          9.018          9.678         -0.330         -0.317         -0.309         -0.449         -0.510         -0.400         -0.395         -0.671         -0.834         -0.470         -0.509         -0.708         -0.870         -0.136         -0.855         -0.023          0.191          0.547          1.186          0.155          0.484          0.655         -0.278         -3.454          0.402         -0.009          0.284        -17.865         -0.738         -0.753          0.170          0.137         -2.087          0.139          1.981         -1.421         -1.305        -19.049         -0.924         -2.512         -0.863          0.399         -5.221         -2.266         -0.214          0.270         -3.005         -0.046          0.857          0.401          0.814          0.519          0.342          0.434          0.511          0.323          0.287          0.372          0.228          0.221          9.836          0.287          0.189          0.170          0.185          0.208          8.695         -0.055          7.919          8.620          6.695          7.482          0.023          0.105         -0.171         -0.183          9.370        -10.292          8.829         10.057         -0.275         -0.377         -0.333         -0.539         -0.404         -0.374         -0.401         -0.578         -0.770         -0.554         -0.579         -0.780         -1.095         -0.859         -0.807         -4.032         -1.188          0.043         -6.193         -3.542         -0.282          1.789         -2.866          0.025          0.542          3.160         -0.534          0.532         -0.172          0.004         -0.636          0.487          0.291          0.240         -1.773         -1.347        -21.354         -1.053         -4.550         -2.029         -0.959         -1.737         -5.897         -1.580          0.849          2.683         -2.382          0.559          2.413          1.661          0.589          0.741          0.772          0.394          0.378          0.477          0.316          0.362          0.411          0.279          0.336         -0.006         -9.458          0.146         10.049          8.581         -0.185          0.083          0.150          7.941         -9.566       -133.295