# Time	LEU-41	ALA-42	ILE-43	VAL-44	PHE-45	GLY-46	ASN-47	GLY-48	LEU-49	VAL-50	CYS-51	MET-52	ALA-53	VAL-54	LEU-55	LYS-56	GLU-57	ARG-58	ALA-59	LEU-60	GLN-61	THR-62	THR-63	THR-64	ASN-65	TYR-66	LEU-67	VAL-68	VAL-69	SER-70	LEU-71	ALA-72	VAL-73	ALA-74	ASH-75	LEU-76	LEU-77	VAL-78	ALA-79	THR-80	LEU-81	VAL-82	MET-83	PRO-84	TRP-85	VAL-86	VAL-87	TYR-88	LEU-89	GLU-90	VAL-91	THR-92	GLY-93	GLY-94	VAL-95	TRP-96	ASN-97	PHE-98	SER-99	ARG-100	ILE-101	CYS-102	CYX-103	ASP-104	VAL-105	PHE-106	VAL-107	THR-108	LEU-109	ASP-110	VAL-111	MET-112	MET-113	CYS-114	THR-115	ALA-116	SER-117	ILE-118	TRP-119	ASN-120	LEU-121	CYS-122	ALA-123	ILE-124	SER-125	ILE-126	ASP-127	ARG-128	TYR-129	THR-130	ALA-131	VAL-132	VAL-133	MET-134	PRO-135	VAL-136	HID-137	TYR-138	GLN-139	HID-140	GLY-141	THR-142	GLY-143	GLN-144	SER-145	SER-146	CYS-147	ARG-148	ARG-149	VAL-150	ALA-151	LEU-152	MET-153	ILE-154	THR-155	ALA-156	VAL-157	TRP-158	VAL-159	LEU-160	ALA-161	PHE-162	ALA-163	VAL-164	SER-165	CYS-166	PRO-167	LEU-168	LEU-169	PHE-170	GLY-171	PHE-172	ASN-173	THR-174	THR-175	GLY-176	ASP-177	PRO-178	THR-179	VAL-180	CYX-181	SER-182	ILE-183	SER-184	ASN-185	PRO-186	ASP-187	PHE-188	VAL-189	ILE-190	TYR-191	SER-192	SER-193	VAL-194	VAL-195	SER-196	PHE-197	TYR-198	LEU-199	PRO-200	PHE-201	GLY-202	VAL-203	THR-204	VAL-205	LEU-206	VAL-207	TYR-208	ALA-209	ARG-210	ILE-211	TYR-212	VAL-213	VAL-214	LEU-215	LYS-216	GLN-217	ARG-218	ARG-219	ARG-220	LYS-221	GLY-319	VAL-320	PRO-321	LEU-322	ARG-323	GLU-324	LYS-325	LYS-326	ALA-327	THR-328	GLN-329	MET-330	VAL-331	ALA-332	ILE-333	VAL-334	LEU-335	GLY-336	ALA-337	PHE-338	ILE-339	VAL-340	CYS-341	TRP-342	LEU-343	PRO-344	PHE-345	PHE-346	LEU-347	THR-348	HIE-349	VAL-350	LEU-351	ASN-352	THR-353	HID-354	CYX-355	GLN-356	THR-357	CYX-358	HID-359	VAL-360	SER-361	PRO-362	GLU-363	LEU-364	TYR-365	SER-366	ALA-367	THR-368	THR-369	TRP-370	LEU-371	GLY-372	TYR-373	VAL-374	ASN-375	SER-376	ALA-377	LEU-378	ASN-379	PRO-380	VAL-381	ILE-382	TYR-383	THR-384	THR-385	PHE-386	ASN-387	ILE-388	GLU-389	PHE-390	ARG-391	LYS-392	ALA-393	PHE-394	LEU-395	LYS-396	ILE-397	DPN-14602	
          0.000         -0.981          0.093          0.023          0.078          0.050         -0.101         -0.175         -0.043         -0.051         -0.102         -0.043         -0.042         -0.048         -0.057         -0.044         -0.410          0.491         -0.176         -0.002         -0.007         -0.071          0.047          0.046          0.052          0.159          0.097          0.121          0.148          0.156          0.180          0.177          0.164          0.166          0.298          0.157          0.163          0.166          0.120          0.062          0.015         -0.071         -0.310         -0.051         -0.012         -0.500         -0.368         -0.141         -0.182         -0.231          3.356         -0.110         -0.047         -0.075          0.013         -0.005          0.021         -0.018          0.161          0.299         -2.008          0.296          0.283          0.334          3.956          0.374          0.712          0.715          0.084         -0.163         44.829          0.511         -0.231         -0.766         -0.531          0.083         -0.218         -0.276         -0.282         -0.230         -0.089         -0.193         -0.170         -0.131         -0.126         -0.112         -0.081          0.913         -0.894         -0.048         -0.058         -0.047         -0.036         -0.022         -0.012          0.012          0.007         -0.000         -0.020          0.003         -0.009         -0.002         -0.010          0.002          0.003          0.029          0.055          0.070         -0.213         -0.728          0.082          0.110          0.119          0.074          0.164          0.146          0.175          0.127          0.275          0.151          0.093          0.115          0.128         -0.019          0.025         -0.067         -0.098         -0.106         -0.297         -0.204         -0.092         -0.171         -0.167          0.042         -0.125         -0.048         -0.020          2.312          0.102         -0.009         -0.126         -0.040          0.119         -0.018         -0.063          0.231          0.142          2.105          0.713          0.427          0.047         -0.062          1.575          0.354          0.001         -0.052          1.541         -0.074         -0.098         -0.102         -0.215         -0.154         -0.164         -0.135         -0.120         -0.076         -0.057         -0.099         -0.060         -0.054         -0.366         -0.059         -0.014         -0.023         -0.026         -0.031         -0.133          0.024         -0.034         -0.258         -0.274         -0.026          0.010         -0.007          0.019          0.031         -0.157          0.438         -0.193         -0.487          0.077          0.094          0.081          0.071          0.123          0.127          0.159          0.179          0.208          0.192          0.182          0.211          0.209          0.208          0.183          0.649          0.025         -0.073          0.587          0.285         -0.115         -0.235          3.082         -0.156         -0.155         -0.247         -0.137         -0.114         -0.094         -0.169          0.043         -0.012          0.047         -0.149          0.230          0.325          2.314          0.300          1.264          0.798          0.351          0.179          2.445          0.491         -0.089         -0.619         -1.490         -0.188         -0.588         -0.421         -0.155         -0.186         -0.229         -0.109         -0.112         -0.129         -0.094         -0.097         -0.100         -0.055         -0.081         -0.009          0.429         -0.046         -0.523         -0.122         -0.025         -0.033         -0.020         -0.186          0.102        144.632
       4000.000         -1.150          0.020          0.034          0.065          0.046         -0.100         -0.199         -0.092         -0.045         -0.103         -0.082         -0.055         -0.050         -0.064         -0.046         -0.371          0.436         -0.110          0.008          0.028         -0.044          0.047          0.051          0.053          0.149          0.104          0.145          0.154          0.153          0.198          0.127          0.161          0.153          0.283          0.193          0.170          0.069          0.182          0.098          0.047         -0.129         -0.334          0.058         -0.032         -0.375         -0.497         -0.163         -0.218         -0.283          3.563         -0.125         -0.157         -0.081          0.045          0.022          0.067         -0.020          0.194          0.336         -2.928          0.296          0.318          0.407          4.422          0.459          1.046          1.059         -0.032         -0.278         43.435          0.666         -0.269         -0.798         -0.812          0.076         -0.235         -0.196         -0.246         -0.222         -0.138         -0.166         -0.155         -0.124         -0.121         -0.127         -0.085          0.858         -0.883         -0.047         -0.065         -0.035         -0.032         -0.021         -0.017          0.008          0.002         -0.010         -0.028          0.023          0.003         -0.006         -0.023          0.001          0.000          0.027          0.045          0.048         -0.214         -0.705          0.081          0.109          0.124          0.139          0.154          0.147          0.167          0.148          0.266          0.125          0.079          0.137          0.151          0.070          0.044         -0.034         -0.093         -0.116         -0.294         -0.138         -0.087         -0.209         -0.131          0.062         -0.111         -0.075         -0.089          2.980          0.128          0.014         -0.287         -0.045          0.123          0.126         -0.022          0.148          0.158          1.950          0.652          0.247          0.078         -0.031          2.022         -0.070          0.010         -0.041          1.227         -0.104         -0.071         -0.100         -0.201         -0.137         -0.118         -0.118         -0.119         -0.104         -0.066         -0.096         -0.057         -0.057         -0.424         -0.064         -0.020         -0.024         -0.037         -0.031         -0.144          0.018         -0.044         -0.274         -0.294         -0.038          0.011         -0.008          0.021          0.034         -0.193          0.546         -0.221         -0.470          0.073          0.087          0.169          0.078          0.113          0.125          0.155          0.166          0.193          0.179          0.233          0.240          0.275          0.285          0.246          0.261          0.059         -0.124          0.733          0.342         -0.089         -0.311          3.598         -0.165         -0.165         -0.330         -0.149         -0.153         -0.144         -0.091          0.015         -0.090         -0.107         -0.127          0.333          0.347          3.009          0.354          0.445          0.928          0.349          0.179          2.338          0.530         -0.024         -0.268         -2.635         -0.244         -0.645         -0.409         -0.222         -0.214         -0.288         -0.144         -0.117         -0.123         -0.099         -0.086         -0.094         -0.061         -0.089         -0.010          0.342         -0.041         -0.559         -0.134         -0.025         -0.045         -0.010         -0.202          0.099        138.122
       8000.000         -1.193          0.023          0.054          0.088          0.048         -0.094         -0.169         -0.089         -0.058         -0.119         -0.018         -0.046         -0.067         -0.069         -0.040         -0.364          0.470         -0.097          0.021          0.031         -0.053          0.063          0.044          0.058          0.190          0.109          0.132          0.157          0.164          0.212          0.192          0.186          0.195          0.188          0.187          0.127         -0.048          0.008          0.115          0.105         -0.119         -0.247          0.110         -0.038         -0.273         -0.424         -0.130         -0.138         -0.292          3.469         -0.125         -0.160         -0.139          0.123          0.032         -0.015         -0.097          0.126          0.317         -2.624          0.217          0.251          0.259          3.922          0.345          0.583          0.770          0.081         -0.104         34.715          0.989         -0.099         -0.288         -0.738         -0.332         -0.246         -0.274         -0.297         -0.291         -0.177         -0.224         -0.210         -0.138         -0.138         -0.145         -0.099          1.024         -0.998         -0.050         -0.072         -0.049         -0.044         -0.029         -0.012          0.014          0.004         -0.029         -0.027          0.016         -0.012          0.001         -0.022         -0.006         -0.009          0.035          0.055          0.070         -0.243         -0.844          0.103          0.123          0.152          0.156          0.179          0.137          0.164          0.168          0.311          0.123          0.093          0.117          0.171          0.085          0.085         -0.034         -0.176         -0.167         -0.234         -0.151         -0.116         -0.111         -0.096          0.121         -0.082         -0.070          0.007          2.926          0.174         -0.027         -0.341         -0.061          0.250          0.004         -0.024          0.297          0.193          2.419          0.782          0.599          0.118         -0.043          2.306          0.875          0.031         -0.078          1.223         -0.189         -0.179         -0.128         -0.241         -0.172         -0.156         -0.143         -0.140         -0.118         -0.069         -0.106         -0.090         -0.059         -0.419         -0.055         -0.018         -0.024         -0.036         -0.031         -0.143          0.012         -0.077         -0.270         -0.209         -0.056          0.003         -0.013          0.023          0.033         -0.432          0.648         -0.180         -0.561          0.080          0.085          0.098          0.067          0.115          0.129          0.156          0.167          0.223          0.202          0.230          0.225          0.259          0.227          0.171          0.426          0.028         -0.091          0.909          0.181         -0.111         -0.351          2.510         -0.191         -0.187         -0.322         -0.200         -0.155         -0.092         -0.030          0.105         -0.019         -0.041         -0.147          0.333          0.431          2.415          0.371          0.613          0.689          0.348          0.271          1.099          0.541         -0.075         -0.525         -2.342         -0.251         -0.683         -0.498         -0.219         -0.236         -0.190         -0.106         -0.119         -0.138         -0.104         -0.108         -0.103         -0.058         -0.064         -0.007          0.690         -0.027         -0.292         -0.161         -0.018         -0.050         -0.025         -0.192          0.135        138.936
      12000.000         -1.020          0.023          0.123          0.036          0.039         -0.099         -0.191         -0.061         -0.052         -0.106         -0.036         -0.059         -0.053         -0.055         -0.040         -0.241          0.461         -0.232          0.011          0.023         -0.053          0.035          0.058          0.048          0.133          0.095          0.137          0.137          0.155          0.215          0.198          0.205          0.178          0.276          0.314          0.215          0.211          0.097          0.169         -0.013          0.009         -0.290          0.310          0.006         -0.324         -0.456         -0.116         -0.304         -0.348          3.551         -0.140          0.060         -0.053          0.016         -0.035         -0.006         -0.283          0.148          0.300         -2.837          0.245          0.246          0.432          4.271          0.444          0.617          0.496         -0.153         -0.383         38.969          0.320         -0.214         -0.651         -0.011          0.422         -0.243         -0.219         -0.184         -0.205         -0.129         -0.172         -0.156         -0.131         -0.120         -0.105         -0.068          0.876         -0.889         -0.044         -0.062         -0.048         -0.034         -0.023         -0.002          0.007          0.005         -0.019         -0.021          0.002         -0.011         -0.007         -0.016         -0.005         -0.007          0.021          0.011          0.058         -0.206         -0.726          0.080          0.108          0.136          0.103          0.147          0.133          0.117          0.109          0.187          0.151          0.090          0.091          0.057          0.051          0.095         -0.037         -0.076         -0.147         -0.194         -0.140         -0.111         -0.240         -0.127          0.093         -0.077         -0.094         -0.088          2.945          0.171          0.024         -0.070          0.009          0.136          0.042         -0.084          0.284          0.161          2.476          0.689          0.395          0.141         -0.074          1.544          0.665         -0.060         -0.043          1.834         -0.130         -0.129         -0.089         -0.196         -0.174         -0.117         -0.108         -0.123         -0.102         -0.055         -0.078         -0.047         -0.043         -0.346         -0.056         -0.017         -0.020         -0.027         -0.029         -0.114          0.007         -0.034         -0.266         -0.172         -0.038          0.001         -0.011          0.023          0.033         -0.458          0.593         -0.207         -0.370          0.067          0.084          0.076          0.126          0.109          0.083          0.134          0.142          0.174          0.170          0.151          0.227          0.231          0.183          0.024          0.479          0.082          0.010          0.715          0.390         -0.082         -0.225          3.912         -0.138         -0.183         -0.490         -0.112         -0.172         -0.107         -0.263          0.091          0.070         -0.045         -0.080          0.328          0.332          2.619          0.275          1.164          0.820          0.300          0.048          1.594          0.383         -0.051         -0.252          0.312         -0.228         -0.559         -0.384         -0.150         -0.207         -0.216         -0.134         -0.115         -0.127         -0.068         -0.105         -0.108         -0.061         -0.071          0.000          0.564         -0.037         -0.523         -0.169         -0.006         -0.045         -0.030         -0.161          0.182        143.985
      16000.000         -1.227          0.028          0.052          0.080         -0.009         -0.103         -0.163         -0.066         -0.034         -0.111         -0.007         -0.062         -0.056         -0.061         -0.048         -0.343          0.451         -0.117          0.005          0.021         -0.056          0.050          0.047          0.040          0.160          0.103          0.137          0.150          0.153          0.223          0.186          0.182          0.208          0.303          0.253          0.138          0.103          0.187          0.270          0.042         -0.146         -0.387         -0.140         -0.037         -0.374         -0.485         -0.145         -0.162         -0.295          3.392         -0.149          0.010         -0.074          0.015          0.030          0.009         -0.069          0.136          0.276         -2.457          0.226          0.213          0.410          3.807          0.477          1.050          0.975          0.180          0.051         46.422          0.635         -0.117         -0.803         -0.726          0.045         -0.238         -0.399         -0.309         -0.296         -0.110         -0.210         -0.224         -0.144         -0.127         -0.142         -0.086          0.941         -0.900         -0.047         -0.068         -0.050         -0.039         -0.025         -0.004          0.003          0.009         -0.023         -0.019          0.035         -0.012         -0.007         -0.019         -0.001         -0.005          0.041          0.043          0.061         -0.228         -0.741          0.076          0.125          0.134          0.098          0.153          0.148          0.151          0.154          0.298          0.176          0.079          0.083          0.155          0.041         -0.007          0.258         -0.130         -0.159         -0.336         -0.170         -0.111         -0.040         -0.073          0.162          0.065         -0.103         -0.100          2.258          0.127          0.003         -0.086          0.031          0.096         -0.027         -0.023          0.229          0.146          1.806          0.779          0.287          0.212         -0.015          2.505          0.965          0.052         -0.070          1.690         -0.163         -0.147         -0.149         -0.253         -0.172         -0.123         -0.145         -0.129         -0.117         -0.058         -0.096         -0.090         -0.061         -0.403         -0.066         -0.024         -0.023         -0.033         -0.028         -0.134          0.025         -0.038         -0.234         -0.256         -0.045          0.002         -0.010          0.026          0.033         -0.251          0.535         -0.157         -0.389          0.070          0.098          0.107          0.105          0.115          0.126          0.139          0.137          0.173          0.186          0.195          0.177          0.235          0.183          0.149          0.670          0.099         -0.067          0.890          0.406         -0.147         -0.384          3.529         -0.158         -0.156         -0.323         -0.152         -0.109         -0.092         -0.190          0.044          0.054         -0.042         -0.101          0.294          0.300          2.386          0.291          0.970          0.675          0.357          0.150          2.099          0.570         -0.052         -0.425         -0.948         -0.137         -0.481         -0.304         -0.173         -0.182         -0.298         -0.114         -0.100         -0.122         -0.102         -0.094         -0.099         -0.051         -0.096         -0.001          0.369         -0.027         -0.452         -0.222          0.003         -0.004          0.000         -0.081          0.225        141.530
      20000.000         -1.172          0.032          0.070          0.076          0.039         -0.098         -0.244         -0.048         -0.049         -0.113         -0.017         -0.034         -0.060         -0.064         -0.034         -0.263          0.431         -0.155          0.004          0.019         -0.047          0.024          0.044          0.049          0.131          0.099          0.115          0.140          0.140          0.198          0.172          0.193          0.193          0.293          0.236          0.164          0.203          0.160          0.250         -0.070         -0.044         -0.317         -0.111          0.019         -0.442         -0.478         -0.135         -0.237         -0.315          3.591         -0.147          0.050         -0.041          0.010          0.022         -0.050         -0.244          0.122          0.321         -2.550          0.240          0.305          0.421          4.079          0.498          0.856          1.014          0.099         -0.303         47.012          0.636         -0.439         -0.833         -0.160         -0.352         -0.239         -0.352         -0.235         -0.228         -0.148         -0.163         -0.198         -0.121         -0.114         -0.111         -0.077          0.839         -0.824         -0.048         -0.052         -0.044         -0.028         -0.021         -0.005          0.012          0.005         -0.019         -0.023          0.012         -0.010         -0.004         -0.011          0.003          0.020          0.036          0.046          0.070         -0.201         -0.699          0.081          0.116          0.108          0.105          0.152          0.132          0.140          0.120          0.235          0.111          0.053          0.120          0.142          0.007          0.057          0.284         -0.089         -0.127         -0.340         -0.159         -0.069         -0.154         -0.080         -0.050         -0.050         -0.095         -0.054          2.465          0.119         -0.013         -0.041         -0.097          0.005         -0.084         -0.034          0.229          0.140          2.049          0.735          0.550          0.112         -0.058          1.981          1.022         -0.003         -0.038          2.048         -0.111         -0.146         -0.091         -0.168         -0.164         -0.120         -0.115         -0.073         -0.072         -0.070         -0.089         -0.058         -0.054         -0.347         -0.057         -0.019         -0.021         -0.028         -0.029         -0.120          0.021         -0.030         -0.220         -0.217         -0.030          0.006         -0.005          0.019          0.029         -0.239          0.525         -0.182         -0.452          0.066          0.085          0.075          0.111          0.100          0.086          0.130          0.133          0.162          0.114          0.153          0.148          0.195          0.195          0.151          0.659          0.036         -0.052          1.034          0.232         -0.113         -0.254          3.353         -0.148         -0.173         -0.286         -0.162         -0.104         -0.080         -0.153          0.072          0.046         -0.037         -0.128          0.245          0.339          2.514          0.346          1.340          0.948          0.446          0.053          2.183          0.617         -0.034         -0.325         -1.563         -0.154         -0.543         -0.188         -0.200         -0.170         -0.194         -0.108         -0.096         -0.118         -0.074         -0.089         -0.103         -0.043         -0.071          0.001          0.378         -0.036         -0.460         -0.148         -0.017         -0.022         -0.017         -0.257          0.098        140.050
      24000.000         -0.947          0.006          0.035          0.044          0.038         -0.073         -0.174         -0.027         -0.037         -0.079         -0.002         -0.036         -0.045         -0.057         -0.031         -0.286          0.402         -0.128          0.008          0.019         -0.054          0.029          0.038          0.042          0.118          0.092          0.118          0.102          0.134          0.167          0.164          0.133          0.154          0.230          0.202          0.149          0.051          0.171          0.101          0.004         -0.019         -0.118          0.229         -0.045         -0.302         -0.429         -0.165         -0.221         -0.268          2.902         -0.108          0.055          0.004          0.019         -0.009         -0.001         -0.116          0.055          0.274         -2.677          0.227          0.212          0.435          3.960          0.384          1.030          0.720         -0.077         -0.246         41.375          0.503         -0.298         -0.728         -0.238         -0.140         -0.211         -0.389         -0.265         -0.236         -0.103         -0.155         -0.230         -0.119         -0.103         -0.113         -0.079          0.824         -0.807         -0.044         -0.055         -0.041         -0.032         -0.024         -0.009          0.007          0.003         -0.021         -0.023         -0.009         -0.001         -0.004         -0.022          0.001          0.017          0.025          0.050          0.057         -0.216         -0.663          0.076          0.117          0.108          0.104          0.146          0.131          0.154          0.138          0.251          0.139          0.070          0.147          0.121          0.011          0.005          0.211         -0.077         -0.148         -0.253         -0.151         -0.094         -0.195         -0.107          0.030         -0.074         -0.076         -0.097          2.511          0.105         -0.016         -0.100         -0.085          0.059          0.013          0.023          0.245          0.203          2.268          0.921          0.707          0.189         -0.077          1.959          0.191         -0.012         -0.119          1.362         -0.141         -0.193         -0.104         -0.216         -0.176         -0.111         -0.129         -0.141         -0.088         -0.071         -0.098         -0.068         -0.052         -0.361         -0.055         -0.015         -0.021         -0.030         -0.023         -0.139          0.014         -0.038         -0.251         -0.296         -0.040          0.007         -0.006          0.019          0.027         -0.288          0.540         -0.174         -0.411          0.060          0.072          0.076          0.054          0.092          0.109          0.141          0.140          0.143          0.127          0.120          0.169          0.207          0.129          0.117          0.571          0.099          0.038          0.515          0.498         -0.013         -0.316          1.736         -0.108         -0.176         -0.578         -0.172         -0.107         -0.110         -0.236          0.091          0.021         -0.016         -0.148          0.253          0.235          2.229          0.200          0.986          0.558          0.200          0.180          1.494          0.058         -0.041         -0.272         -0.696         -0.130         -0.336         -0.272         -0.156         -0.176         -0.190         -0.093         -0.087         -0.103         -0.062         -0.085         -0.082         -0.042         -0.035          0.004          0.359         -0.037         -0.482         -0.107         -0.026         -0.028         -0.025         -0.170          0.071        131.047