# Time	LEU-41	ALA-42	ILE-43	VAL-44	PHE-45	GLY-46	ASN-47	GLY-48	LEU-49	VAL-50	CYS-51	MET-52	ALA-53	VAL-54	LEU-55	LYS-56	GLU-57	ARG-58	ALA-59	LEU-60	GLN-61	THR-62	THR-63	THR-64	ASN-65	TYR-66	LEU-67	VAL-68	VAL-69	SER-70	LEU-71	ALA-72	VAL-73	ALA-74	ASH-75	LEU-76	LEU-77	VAL-78	ALA-79	THR-80	LEU-81	VAL-82	MET-83	PRO-84	TRP-85	VAL-86	VAL-87	TYR-88	LEU-89	GLU-90	VAL-91	THR-92	GLY-93	GLY-94	VAL-95	TRP-96	ASN-97	PHE-98	SER-99	ARG-100	ILE-101	CYS-102	CYX-103	ASP-104	VAL-105	PHE-106	VAL-107	THR-108	LEU-109	ASP-110	VAL-111	MET-112	MET-113	CYS-114	THR-115	ALA-116	SER-117	ILE-118	TRP-119	ASN-120	LEU-121	CYS-122	ALA-123	ILE-124	SER-125	ILE-126	ASP-127	ARG-128	TYR-129	THR-130	ALA-131	VAL-132	VAL-133	MET-134	PRO-135	VAL-136	HID-137	TYR-138	GLN-139	HID-140	GLY-141	THR-142	GLY-143	GLN-144	SER-145	SER-146	CYS-147	ARG-148	ARG-149	VAL-150	ALA-151	LEU-152	MET-153	ILE-154	THR-155	ALA-156	VAL-157	TRP-158	VAL-159	LEU-160	ALA-161	PHE-162	ALA-163	VAL-164	SER-165	CYS-166	PRO-167	LEU-168	LEU-169	PHE-170	GLY-171	PHE-172	ASN-173	THR-174	THR-175	GLY-176	ASP-177	PRO-178	THR-179	VAL-180	CYX-181	SER-182	ILE-183	SER-184	ASN-185	PRO-186	ASP-187	PHE-188	VAL-189	ILE-190	TYR-191	SER-192	SER-193	VAL-194	VAL-195	SER-196	PHE-197	TYR-198	LEU-199	PRO-200	PHE-201	GLY-202	VAL-203	THR-204	VAL-205	LEU-206	VAL-207	TYR-208	ALA-209	ARG-210	ILE-211	TYR-212	VAL-213	VAL-214	LEU-215	LYS-216	GLN-217	ARG-218	ARG-219	ARG-220	LYS-221	GLY-319	VAL-320	PRO-321	LEU-322	ARG-323	GLU-324	LYS-325	LYS-326	ALA-327	THR-328	GLN-329	MET-330	VAL-331	ALA-332	ILE-333	VAL-334	LEU-335	GLY-336	ALA-337	PHE-338	ILE-339	VAL-340	CYS-341	TRP-342	LEU-343	PRO-344	PHE-345	PHE-346	LEU-347	THR-348	HIE-349	VAL-350	LEU-351	ASN-352	THR-353	HID-354	CYX-355	GLN-356	THR-357	CYX-358	HID-359	VAL-360	SER-361	PRO-362	GLU-363	LEU-364	TYR-365	SER-366	ALA-367	THR-368	THR-369	TRP-370	LEU-371	GLY-372	TYR-373	VAL-374	ASN-375	SER-376	ALA-377	LEU-378	ASN-379	PRO-380	VAL-381	ILE-382	TYR-383	THR-384	THR-385	PHE-386	ASN-387	ILE-388	GLU-389	PHE-390	ARG-391	LYS-392	ALA-393	PHE-394	LEU-395	LYS-396	ILE-397	DPN-14602	
          0.000         14.873         -0.045          0.111         -0.199         -0.021          0.375          0.522          0.091          0.198          0.410          0.182          0.282          0.229          0.280          0.218         10.683         -9.598          8.781         -0.033          0.055          0.423         -0.264         -0.257         -0.171         -0.759         -0.382         -0.484         -0.605         -0.582         -0.551         -0.834         -0.533         -0.495         -1.049         -0.592         -0.604         -0.333          0.104          0.257          0.420          0.387          0.740         -0.279         -0.122          0.959          0.504         -0.283          0.578          1.570        -25.279          0.416          0.175          0.430         -0.159          0.505          0.204         -0.277         -0.756         -1.280         18.468         -1.066         -0.720         -2.423        -26.609         -1.267         -1.965         -3.138         -1.304         -0.378       -115.832         -6.839          0.512          2.563          0.321          0.571          0.923          1.242          1.280          1.246          0.569          0.887          0.785          0.528          0.553          0.484          0.342        -11.978         12.016          0.339          0.253          0.237          0.242          0.184          0.069         -0.108         -0.062         -0.121          0.109         -0.215          0.093          0.059          0.018         -0.068         -0.143         -0.159         -0.269         -0.364          9.330         11.427         -0.320         -0.365         -0.360         -0.181         -0.564         -0.485         -0.461         -0.564         -0.988         -0.491         -0.509         -0.844         -0.818          0.015         -0.290          0.311          0.290          0.480          1.292          0.695          0.396          0.785          0.565          0.141          0.154          1.360          0.519        -23.496         -1.307         -0.304         -2.748         -2.792          2.238          0.254         -0.046         -2.043         -0.863        -19.336         -1.394         -3.819         -0.519          0.294         -3.255         -3.507         -0.290          0.427         -4.350         -0.080          0.515          0.525          0.917          0.564          0.494          0.475          0.582          0.313          0.262          0.413          0.229          0.233         10.164          0.307          0.174          0.180          0.186          0.228          9.294         -0.114          7.163          9.006          8.795          6.865         -0.060          0.054         -0.146         -0.191          9.002         -9.849          8.810         10.287         -0.315         -0.446         -0.325         -0.227         -0.495         -0.443         -0.484         -0.715         -0.785         -0.634         -0.600         -1.197         -1.123         -0.633         -0.701         -3.926         -0.761          0.096         -6.143         -3.588          0.147          2.073         -3.389         -0.228          0.561          2.445          0.031          0.696          0.688          0.447          0.040          0.722          0.329          0.439         -1.342         -1.354        -21.201         -1.154         -4.331         -3.318         -0.785         -1.459         -7.883         -1.420          0.804          3.843          1.721          0.666          2.816          1.882          0.669          0.809          1.048          0.401          0.479          0.534          0.419          0.397          0.422          0.266          0.403          0.053         -9.336          0.206         10.768          8.305          0.124          0.141          0.113          8.675         -9.010       -137.803
       4000.000         15.000          0.047          0.016         -0.126         -0.052          0.305          0.690          0.201          0.185          0.424          0.314          0.303          0.234          0.316          0.267          9.933         -9.426          8.271         -0.072         -0.128          0.331         -0.244         -0.301         -0.202         -0.719         -0.407         -0.560         -0.596         -0.548         -0.552         -0.737         -0.537         -0.390         -0.769         -0.318         -0.540          0.095         -0.002          0.093          0.240          0.528          0.886         -0.451         -0.013          0.727          0.742         -0.118          0.714          1.301        -25.878          0.367          0.425          0.658         -0.719          0.037          0.029          0.118         -0.694         -1.376         20.346         -1.118         -1.048         -2.297        -26.882         -1.242         -1.984         -3.786         -0.763         -0.060       -108.654         -2.276          0.100          2.368          2.309          0.515          0.997          1.013          1.127          1.192          0.689          0.831          0.768          0.473          0.525          0.567          0.366        -11.694         11.914          0.331          0.275          0.188          0.222          0.193          0.040         -0.094         -0.041         -0.060          0.112         -0.068         -0.038          0.069          0.083         -0.044         -0.115         -0.145         -0.215         -0.232          9.266         11.178         -0.323         -0.352         -0.371         -0.456         -0.492         -0.493         -0.384         -0.555         -0.802         -0.338         -0.353         -0.660         -0.691         -0.290         -0.750          0.050          0.215          0.445          0.907          0.229          0.357          0.786          0.430         -0.060          0.308          1.852          0.904        -25.683         -1.238         -0.009         -3.014         -2.843          1.478         -0.116         -0.374         -1.769         -0.798        -18.267         -1.232         -1.994         -0.938         -0.043         -5.788         -3.128         -0.285          0.264         -2.333          0.304          1.010          0.464          0.846          0.535          0.310          0.439          0.672          0.413          0.276          0.382          0.201          0.219         10.327          0.325          0.199          0.177          0.216          0.206          9.239         -0.068          7.564          9.013          8.848          6.998         -0.039          0.052         -0.161         -0.207          8.940        -10.352          9.453         10.417         -0.326         -0.438         -0.722         -0.351         -0.486         -0.432         -0.499         -0.706         -0.891         -0.594         -0.712         -1.248         -1.337         -0.858         -0.943         -4.010         -1.006          0.158         -3.635         -2.793         -0.100          2.170         -3.250          0.236          0.635          2.869          0.505          0.751          0.884          0.346          0.175          0.250          0.471          0.108         -1.605         -1.480        -22.210         -1.342         -2.978         -3.655         -1.473         -2.505         -8.952         -2.159          0.524          4.550          3.792          1.035          3.749          2.019          0.838          0.877          1.291          0.483          0.486          0.497          0.406          0.351          0.379          0.286          0.453          0.068         -9.153          0.201         10.911          8.593          0.142          0.220          0.048          8.610         -8.583       -120.316
       8000.000         15.446          0.011         -0.061         -0.162         -0.036          0.333          0.567          0.192          0.201          0.411          0.155          0.291          0.280          0.302          0.221         10.334         -9.914          8.371         -0.095         -0.115          0.380         -0.317         -0.245         -0.201         -0.757         -0.426         -0.541         -0.623         -0.581         -0.627         -0.858         -0.714         -0.551         -0.576         -1.393         -0.446          0.464          0.354         -0.067         -0.057          0.498          0.860         -0.448          0.065          0.642          0.880          0.040          0.434          1.300        -24.312          0.392          0.386          0.573         -0.772          0.030          0.263          0.245         -0.507         -1.393         19.738         -0.912         -1.018         -1.555        -25.484         -1.123         -1.951         -3.523         -1.323         -0.460       -110.549         -7.842         -0.108          0.689          1.211          0.999          1.057          1.475          1.329          1.482          0.699          0.926          0.868          0.525          0.561          0.628          0.384        -12.129         12.071          0.264          0.277          0.231          0.257          0.204          0.028         -0.111         -0.047          0.188          0.107         -0.151          0.104          0.034          0.063          0.001         -0.069         -0.170         -0.275         -0.336          9.587         11.675         -0.374         -0.370         -0.426         -0.608         -0.582         -0.470         -0.457         -0.693         -1.072         -0.387         -0.408         -0.711         -1.031         -0.382         -0.853         -0.084          0.620          0.761          1.138          0.380          0.446          0.459          0.422         -0.396          0.002          1.693          0.567        -25.652         -1.179         -0.584         -2.492         -2.429          1.920         -0.275         -0.302         -2.178         -1.053        -19.673         -1.417         -3.944         -0.955          0.036         -7.494          0.646         -0.399          0.226         -2.701          0.325          0.790          0.558          0.958          0.633          0.434          0.482          0.517          0.404          0.283          0.388          0.352          0.271         10.149          0.282          0.159          0.168          0.202          0.209          8.947         -0.056          7.523          9.017          8.471          7.129         -0.006          0.103         -0.141         -0.176          9.874        -10.642          8.762         10.505         -0.313         -0.354         -0.165         -0.226         -0.444         -0.433         -0.463         -0.609         -0.895         -0.612         -0.641         -1.198         -1.122         -0.698         -0.537         -4.049         -0.791          0.211         -7.319         -3.453         -0.363          1.682         -1.256          0.045          0.564          2.551          0.046          0.666          0.641          0.285         -0.670          0.487          0.164          0.055         -1.542         -1.486        -20.634         -1.341         -4.860         -2.838         -0.824         -2.154         -7.201         -2.179          0.643          4.046          4.772          0.962          3.681          2.080          0.789          0.880          0.840          0.360          0.485          0.547          0.439          0.446          0.415          0.291          0.274          0.027        -10.916          0.151          9.504          8.425          0.081          0.154          0.042          9.296         -8.561       -133.302
      12000.000         14.608          0.035         -0.335         -0.093         -0.005          0.359          0.621          0.134          0.201          0.389          0.213          0.191          0.240          0.276          0.241          9.659         -9.534          8.882         -0.051         -0.092          0.358         -0.163         -0.351         -0.183         -0.582         -0.340         -0.530         -0.527         -0.528         -0.554         -0.876         -0.740         -0.590         -0.941         -1.693         -0.780         -0.531          0.036         -0.130          0.544          0.511          1.150         -1.034         -0.257          0.854          1.131         -0.149          0.727          1.673        -25.176          0.468         -0.393          0.017         -0.441          0.280          0.256          1.188         -0.512         -1.263         20.259         -0.987         -0.803         -2.333        -26.871         -1.253         -1.328         -2.650         -0.479          0.261       -113.805         -9.610         -0.005          2.331          0.390          0.408          1.094          1.416          1.018          1.367          0.659          0.856          0.769          0.522          0.530          0.563          0.326        -11.800         11.752          0.320          0.271          0.228          0.238          0.197         -0.069         -0.065         -0.045          0.165          0.103          0.077          0.091          0.088          0.045         -0.029          0.047         -0.122         -0.114         -0.274          9.427         11.343         -0.338         -0.364         -0.391         -0.360         -0.550         -0.488         -0.366         -0.517         -0.842         -0.548         -0.422         -0.648         -0.421         -0.131         -0.992          0.355          0.144          0.684          0.695          0.304          0.410          0.918          0.586         -0.298          0.401          1.776          0.785        -24.955         -1.270         -0.229         -3.219         -2.963          2.020          0.525          0.042         -2.338         -1.046        -19.666         -1.671         -2.488         -1.542         -0.002         -7.112         -5.278         -0.062          0.290         -4.377          0.122          1.056          0.456          0.905          0.663          0.359          0.455          0.647          0.444          0.266          0.351          0.149          0.188         10.050          0.297          0.171          0.145          0.186          0.200          9.077          0.016          7.360          9.113          8.195          7.031          0.036          0.096         -0.167         -0.204          9.833        -10.347          8.778          9.717         -0.311         -0.426         -0.124         -0.627         -0.480         -0.317         -0.431         -0.597         -0.775         -0.576         -0.491         -1.376         -1.242         -0.760          0.141         -3.221         -0.969          0.166         -5.221         -3.590         -0.428          1.441         -4.629          0.248          0.561          3.007         -0.019          0.645          0.629          1.301         -0.669         -0.406          0.030         -0.176         -1.393         -1.343        -21.278         -0.937         -4.711         -3.302         -0.868         -2.759         -6.746         -1.915          0.621          3.352         -1.759          1.008          3.420          1.796          0.583          0.848          0.859          0.452          0.476          0.514          0.258          0.343          0.419          0.292          0.317          0.002        -10.224          0.165         10.741          8.630          0.024          0.150          0.150          8.388         -9.603       -152.644
      16000.000         15.757         -0.002         -0.087         -0.153          0.117          0.364          0.612          0.174          0.163          0.461          0.114          0.221          0.263          0.298          0.276         10.016         -9.629          8.426         -0.043         -0.083          0.392         -0.249         -0.292         -0.161         -0.737         -0.443         -0.514         -0.596         -0.572         -0.698         -0.874         -0.705         -0.604         -1.021         -1.896         -0.430         -0.033          0.006         -0.484          0.295          0.502          0.998          0.411         -0.033          0.793          1.146         -0.140          0.488          1.640        -24.601          0.502         -0.173          0.267         -0.541          0.123          0.019          0.391         -0.514         -1.258         20.044         -0.913         -0.761         -2.138        -25.801         -1.409         -2.195         -2.981         -1.256         -0.902       -113.020         -9.890         -0.200          2.389          2.574         -0.129          1.004          1.694          1.227          1.414          0.794          0.969          0.987          0.518          0.548          0.665          0.400        -12.188         12.029          0.362          0.289          0.245          0.253          0.200         -0.003         -0.064         -0.076          0.148          0.106         -0.307          0.117          0.069          0.068         -0.041          0.062         -0.217         -0.248         -0.317          9.573         11.512         -0.309         -0.409         -0.389         -0.184         -0.513         -0.503         -0.369         -0.623         -1.088         -0.558         -0.301         -0.470         -0.768         -0.176         -0.570         -1.466          0.300          0.529          0.921          0.415          0.479          0.204          0.214         -0.347         -0.351          1.746          0.924        -23.886         -1.070         -0.453         -2.770         -3.080          0.189         -0.371         -0.102         -1.889         -0.666        -18.105         -1.570         -1.719         -1.192          0.003         -6.649         -3.833         -0.391          0.076         -1.781          0.168          0.733          0.571          0.981          0.564          0.372          0.509          0.602          0.449          0.275          0.377          0.335          0.251         10.380          0.342          0.152          0.165          0.204          0.205          9.272         -0.134          7.354          9.056          8.850          7.324          0.046          0.070         -0.195         -0.212          8.985        -10.523          8.942          9.953         -0.324         -0.460         -0.264         -0.618         -0.493         -0.450         -0.448         -0.596         -0.768         -0.618         -0.561         -1.195         -1.305         -0.729         -0.518         -4.561         -1.217          0.057         -3.904         -4.375          0.001          1.955         -2.262          0.115          0.525          2.679          0.050          0.573          0.589          1.505         -0.666         -0.394          0.211         -0.065         -1.518         -1.419        -21.603         -1.026         -5.113         -3.380         -1.078         -1.236         -6.863         -2.333          0.460          2.738          0.150          0.647          2.778          1.626          0.625          0.782          1.300          0.443          0.461          0.521          0.462          0.397          0.406          0.278          0.411          0.053         -9.478          0.125         10.689          8.696          0.040          0.040         -0.064          8.133         -8.901       -143.902
      20000.000         15.569         -0.029         -0.116         -0.176         -0.020          0.373          0.843          0.135          0.212          0.457          0.153          0.159          0.284          0.301          0.238          9.850         -9.593          8.585         -0.042         -0.091          0.326         -0.126         -0.271         -0.201         -0.633         -0.335         -0.459         -0.610         -0.533         -0.503         -0.813         -0.817         -0.576         -0.976         -1.434         -0.420         -0.254          0.314         -0.337          0.634          0.272          0.760          0.623         -0.397          0.772          0.913         -0.218          0.528          1.656        -25.121          0.573         -0.280          0.111         -0.596          0.090          0.147          0.817         -0.484         -1.356         19.703         -0.919         -1.040         -2.245        -26.569         -1.491         -2.283         -3.196         -1.091         -0.247       -107.842         -8.438          0.037          2.550          0.990          0.275          0.944          1.752          1.173          1.349          0.885          0.861          0.912          0.492          0.531          0.525          0.375        -11.849         11.756          0.345          0.232          0.224          0.203          0.176          0.002         -0.107         -0.052          0.171          0.128         -0.155          0.112          0.069          0.032         -0.069         -0.182         -0.168         -0.233         -0.356          9.372         11.358         -0.345         -0.387         -0.355         -0.337         -0.543         -0.501         -0.384         -0.462         -0.830         -0.344         -0.207         -0.513         -0.556         -0.036         -0.614         -1.181          0.225          0.501          1.160          0.398          0.316          0.573          0.280          0.663         -0.002          1.620          0.736        -24.012         -1.061         -0.236         -2.535         -3.846          0.759          0.020         -0.502         -2.028         -0.888        -19.092         -1.220         -2.854         -1.115          0.041         -6.374         -3.942         -0.356          0.148         -4.031          0.089          1.078          0.424          0.842          0.612          0.395          0.460          0.377          0.339          0.332          0.387          0.221          0.255         10.160          0.303          0.179          0.166          0.194          0.177          9.027         -0.103          7.203          8.849          8.595          6.933         -0.024          0.058         -0.146         -0.191          8.804        -10.436          8.730         10.257         -0.329         -0.450         -0.202         -0.649         -0.469         -0.330         -0.473         -0.620         -0.867         -0.356         -0.556         -1.143         -1.057         -0.649         -0.629         -3.400         -0.885          0.475         -4.955         -2.652          0.044          1.707         -2.443          0.234          0.533          2.661          0.321          0.717          0.598          1.515         -0.598         -0.152          0.104          0.269         -1.231         -1.443        -21.569         -1.221         -4.837         -3.870         -1.457         -2.110         -8.284         -2.726          0.509          3.503          1.647          0.828          3.205          1.602          0.802          0.816          0.896          0.381          0.495          0.554          0.358          0.400          0.464          0.257          0.330          0.009         -9.318          0.166         10.776          8.475          0.107          0.126          0.119          8.928         -8.034       -137.853
      24000.000         15.049          0.112         -0.006         -0.007         -0.009          0.309          0.714          0.088          0.184          0.357          0.034          0.256          0.235          0.321          0.251          9.746         -9.493          8.523         -0.059         -0.093          0.346         -0.180         -0.270         -0.192         -0.646         -0.400         -0.527         -0.503         -0.563         -0.505         -0.906         -0.561         -0.403         -0.827         -1.731         -0.434          0.221          0.141          0.013          0.324          0.217          0.097         -1.440         -0.033          0.571          0.855         -0.095          0.514          1.600        -24.519          0.395         -0.391          0.337         -0.273          0.179          0.070          0.880         -0.216         -1.331         20.568         -0.939         -0.642         -2.111        -26.582         -1.227         -2.195         -2.913         -0.254         -0.112       -106.205         -8.943          0.404          1.920          1.932          0.744          0.994          2.432          1.212          1.204          0.596          0.830          0.980          0.520          0.503          0.545          0.375        -11.992         11.935          0.318          0.255          0.234          0.244          0.204          0.037         -0.073         -0.021          0.190          0.119          0.163         -0.019          0.036          0.076         -0.066         -0.164         -0.133         -0.269         -0.352          9.311         11.417         -0.324         -0.427         -0.392         -0.276         -0.539         -0.449         -0.407         -0.619         -0.924         -0.399         -0.267         -0.777         -0.730         -0.052         -0.248         -1.361          0.170          0.611          0.918          0.280          0.356          0.847          0.449          0.209          0.090          1.716          0.824        -25.832         -1.417         -0.228         -2.910         -3.360          0.611         -0.141         -0.662         -2.121         -1.095        -19.315         -1.057         -2.616         -1.176          0.007         -6.479         -4.543         -0.427          0.168         -4.397         -0.070          0.927          0.426          0.893          0.632          0.325          0.503          0.711          0.398          0.321          0.414          0.272          0.245         10.208          0.309          0.199          0.184          0.215          0.195          9.326         -0.051          7.566          9.037          9.030          7.205         -0.057          0.034         -0.155         -0.184          9.259        -10.703          8.709         10.347         -0.300         -0.401         -0.200         -0.227         -0.436         -0.416         -0.485         -0.624         -0.672         -0.424         -0.343         -1.209         -1.174         -0.816         -0.510         -2.996         -0.734         -0.241         -3.901         -5.488         -0.227          1.665         -4.500         -0.116          0.686          3.691          0.184          0.606          0.684          0.995         -0.672         -0.241          0.143          0.244         -1.424         -1.515        -21.362         -0.824         -4.144         -2.785         -0.834         -2.017         -5.590          0.531          0.624          2.898         -0.399          0.603          3.158          1.947          0.736          0.823          0.903          0.396          0.462          0.540          0.302          0.386          0.384          0.289          0.233          0.021         -9.276          0.206         11.077          8.231          0.137          0.133          0.126          8.585         -8.528       -134.046